
     Program PWSCF v.6.5 starts on 23Jul2020 at 11:49:59 

     This program is part of the open-source Quantum ESPRESSO suite
     for quantum simulation of materials; please cite
         "P. Giannozzi et al., J. Phys.:Condens. Matter 21 395502 (2009);
         "P. Giannozzi et al., J. Phys.:Condens. Matter 29 465901 (2017);
          URL http://www.quantum-espresso.org", 
     in publications or presentations arising from this work. More details at
     http://www.quantum-espresso.org/quote

     Parallel version (MPI & OpenMP), running on     288 processor cores
     Number of MPI processes:               288
     Threads/MPI process:                     1

     MPI processes distributed on     8 nodes
     R & G space division:  proc/nbgrp/npool/nimage =     288
     Reading input from ausurf.in

     Current dimensions of program PWSCF are:
     Max number of different atomic species (ntypx) = 10
     Max number of k-points (npk) =  40000
     Max angular momentum in pseudopotentials (lmaxx) =  3

     Subspace diagonalization in iterative solution of the eigenvalue problem:
     one sub-group per band group will be used
     scalapack distributed-memory algorithm (size of sub-group: 16* 16 procs)

 
     Parallelization info
     --------------------
     sticks:   dense  smooth     PW     G-vecs:    dense   smooth      PW
     Min          41      20      5                 7483     2640     343
     Max          42      21      6                 7505     2663     358
     Sum       11837    5915   1537              2158381   763307  100747
 

     Title: 
      DEISA pw benchmark                                                        


     bravais-lattice index     =            8
     lattice parameter (alat)  =      38.7583  a.u.
     unit-cell volume          =   45191.4962 (a.u.)^3
     number of atoms/cell      =          112
     number of atomic types    =            1
     number of electrons       =      1232.00
     number of Kohn-Sham states=          800
     kinetic-energy cutoff     =      25.0000  Ry
     charge density cutoff     =     200.0000  Ry
     convergence threshold     =      1.0E-06
     mixing beta               =       0.7000
     number of iterations used =            8  plain     mixing
     Exchange-correlation=  SLA  PW   PBE  PBE
                           (   1   4   3   4   0   0   0)

     celldm(1)=  38.758300  celldm(2)=   0.494393  celldm(3)=   1.569966
     celldm(4)=   0.000000  celldm(5)=   0.000000  celldm(6)=   0.000000

     crystal axes: (cart. coord. in units of alat)
               a(1) = (   1.000000   0.000000   0.000000 )  
               a(2) = (   0.000000   0.494393   0.000000 )  
               a(3) = (   0.000000   0.000000   1.569966 )  

     reciprocal axes: (cart. coord. in units 2 pi/alat)
               b(1) = (  1.000000  0.000000  0.000000 )  
               b(2) = (  0.000000  2.022682  0.000000 )  
               b(3) = (  0.000000  0.000000  0.636956 )  


     PseudoPot. # 1 for Au read from file:
     ./Au.pbe-nd-van.UPF
     MD5 check sum: deb5c07af10777505a79e28f5b4b4115
     Pseudo is Ultrasoft + core correction, Zval = 11.0
     Generated by new atomic code, or converted to UPF format
     Using radial grid of  985 points,  3 beta functions with: 
                l(1) =   1
                l(2) =   2
                l(3) =   2
     Q(r) pseudized with  8 coefficients,  rinner =    1.100   1.100   1.100
                                                       1.100   1.100

     atomic species   valence    mass     pseudopotential
        AU            11.00   196.96000     Au( 1.00)

     No symmetry found



   Cartesian axes

     site n.     atom                  positions (alat units)
         1           AU  tau(   1) = (   1.4278395   1.9784974   0.3497317  )
         2           AU  tau(   2) = (   1.4278395   1.7313987   0.3497317  )
         3           AU  tau(   3) = (   1.5706478   1.9784974   0.3497317  )
         4           AU  tau(   4) = (   1.5706478   1.7313987   0.3497317  )
         5           AU  tau(   5) = (   1.7134072   1.9784974   0.3497317  )
         6           AU  tau(   6) = (   1.7134072   1.7313987   0.3497317  )
         7           AU  tau(   7) = (   1.8562156   1.9784974   0.3497317  )
         8           AU  tau(   8) = (   1.8562156   1.7313987   0.3497317  )
         9           AU  tau(   9) = (   1.9989753   1.9784974   0.3497317  )
        10           AU  tau(  10) = (   1.9989753   1.7313987   0.3497317  )
        11           AU  tau(  11) = (   2.1417836   1.9784974   0.3497317  )
        12           AU  tau(  12) = (   2.1417836   1.7313987   0.3497317  )
        13           AU  tau(  13) = (   2.2845431   1.9784974   0.3497317  )
        14           AU  tau(  14) = (   2.2845431   1.7313987   0.3497317  )
        15           AU  tau(  15) = (   1.4278395   2.0609450   0.2331545  )
        16           AU  tau(  16) = (   1.4278395   1.8138461   0.2331545  )
        17           AU  tau(  17) = (   1.5706478   2.0609450   0.2331545  )
        18           AU  tau(  18) = (   1.5706478   1.8138461   0.2331545  )
        19           AU  tau(  19) = (   1.7134072   2.0609450   0.2331545  )
        20           AU  tau(  20) = (   1.7134072   1.8138461   0.2331545  )
        21           AU  tau(  21) = (   1.8562156   2.0609450   0.2331545  )
        22           AU  tau(  22) = (   1.8562156   1.8138461   0.2331545  )
        23           AU  tau(  23) = (   1.9989753   2.0609450   0.2331545  )
        24           AU  tau(  24) = (   1.9989753   1.8138461   0.2331545  )
        25           AU  tau(  25) = (   2.1417836   2.0609450   0.2331545  )
        26           AU  tau(  26) = (   2.1417836   1.8138461   0.2331545  )
        27           AU  tau(  27) = (   2.2845431   2.0609450   0.2331545  )
        28           AU  tau(  28) = (   2.2845431   1.8138461   0.2331545  )
        29           AU  tau(  29) = (   1.4992193   2.1021445   0.3497317  )
        30           AU  tau(  30) = (   1.4992193   1.8550456   0.3497317  )
        31           AU  tau(  31) = (   1.6420276   2.1021445   0.3497317  )
        32           AU  tau(  32) = (   1.6420276   1.8550456   0.3497317  )
        33           AU  tau(  33) = (   1.7847871   2.1021445   0.3497317  )
        34           AU  tau(  34) = (   1.7847871   1.8550456   0.3497317  )
        35           AU  tau(  35) = (   1.9275954   2.1021445   0.3497317  )
        36           AU  tau(  36) = (   1.9275954   1.8550456   0.3497317  )
        37           AU  tau(  37) = (   2.0704038   2.1021445   0.3497317  )
        38           AU  tau(  38) = (   2.0704038   1.8550456   0.3497317  )
        39           AU  tau(  39) = (   2.2131632   2.1021445   0.3497317  )
        40           AU  tau(  40) = (   2.2131632   1.8550456   0.3497317  )
        41           AU  tau(  41) = (   2.3559716   2.1021445   0.3497317  )
        42           AU  tau(  42) = (   2.3559716   1.8550456   0.3497317  )
        43           AU  tau(  43) = (   1.4992193   1.6901992   0.2331545  )
        44           AU  tau(  44) = (   1.4992193   1.9374930   0.2331545  )
        45           AU  tau(  45) = (   1.6420276   1.6901992   0.2331545  )
        46           AU  tau(  46) = (   1.6420276   1.9374930   0.2331545  )
        47           AU  tau(  47) = (   1.7847871   1.6901992   0.2331545  )
        48           AU  tau(  48) = (   1.7847871   1.9374930   0.2331545  )
        49           AU  tau(  49) = (   1.9275954   1.6901992   0.2331545  )
        50           AU  tau(  50) = (   1.9275954   1.9374930   0.2331545  )
        51           AU  tau(  51) = (   2.0704038   1.6901992   0.2331545  )
        52           AU  tau(  52) = (   2.0704038   1.9374930   0.2331545  )
        53           AU  tau(  53) = (   2.2131632   1.6901992   0.2331545  )
        54           AU  tau(  54) = (   2.2131632   1.9374930   0.2331545  )
        55           AU  tau(  55) = (   2.3559716   1.6901992   0.2331545  )
        56           AU  tau(  56) = (   2.3559716   1.9374930   0.2331545  )
        57           AU  tau(  57) = (   1.4278395   1.9784974   0.0000000  )
        58           AU  tau(  58) = (   1.4278395   1.7313987   0.0000000  )
        59           AU  tau(  59) = (   1.5706478   1.9784974   0.0000000  )
        60           AU  tau(  60) = (   1.5706478   1.7313987   0.0000000  )
        61           AU  tau(  61) = (   1.7134072   1.9784974   0.0000000  )
        62           AU  tau(  62) = (   1.7134072   1.7313987   0.0000000  )
        63           AU  tau(  63) = (   1.8562156   1.9784974   0.0000000  )
        64           AU  tau(  64) = (   1.8562156   1.7313987   0.0000000  )
        65           AU  tau(  65) = (   1.9989753   1.9784974   0.0000000  )
        66           AU  tau(  66) = (   1.9989753   1.7313987   0.0000000  )
        67           AU  tau(  67) = (   2.1417836   1.9784974   0.0000000  )
        68           AU  tau(  68) = (   2.1417836   1.7313987   0.0000000  )
        69           AU  tau(  69) = (   2.2845431   1.9784974   0.0000000  )
        70           AU  tau(  70) = (   2.2845431   1.7313987   0.0000000  )
        71           AU  tau(  71) = (   1.4992193   2.0196968   0.1165772  )
        72           AU  tau(  72) = (   1.4992193   1.7725979   0.1165772  )
        73           AU  tau(  73) = (   1.6420276   2.0196968   0.1165772  )
        74           AU  tau(  74) = (   1.6420276   1.7725979   0.1165772  )
        75           AU  tau(  75) = (   1.7847871   2.0196968   0.1165772  )
        76           AU  tau(  76) = (   1.7847871   1.7725979   0.1165772  )
        77           AU  tau(  77) = (   1.9275954   2.0196968   0.1165772  )
        78           AU  tau(  78) = (   1.9275954   1.7725979   0.1165772  )
        79           AU  tau(  79) = (   2.0704038   2.0196968   0.1165772  )
        80           AU  tau(  80) = (   2.0704038   1.7725979   0.1165772  )
        81           AU  tau(  81) = (   2.2131632   2.0196968   0.1165772  )
        82           AU  tau(  82) = (   2.2131632   1.7725979   0.1165772  )
        83           AU  tau(  83) = (   2.3559716   2.0196968   0.1165772  )
        84           AU  tau(  84) = (   2.3559716   1.7725979   0.1165772  )
        85           AU  tau(  85) = (   1.4278395   2.1433437   0.1165772  )
        86           AU  tau(  86) = (   1.4278395   1.8962938   0.1165772  )
        87           AU  tau(  87) = (   1.5706478   2.1433437   0.1165772  )
        88           AU  tau(  88) = (   1.5706478   1.8962938   0.1165772  )
        89           AU  tau(  89) = (   1.7134072   2.1433437   0.1165772  )
        90           AU  tau(  90) = (   1.7134072   1.8962938   0.1165772  )
        91           AU  tau(  91) = (   1.8562156   2.1433437   0.1165772  )
        92           AU  tau(  92) = (   1.8562156   1.8962938   0.1165772  )
        93           AU  tau(  93) = (   1.9989753   2.1433437   0.1165772  )
        94           AU  tau(  94) = (   1.9989753   1.8962938   0.1165772  )
        95           AU  tau(  95) = (   2.1417836   2.1433437   0.1165772  )
        96           AU  tau(  96) = (   2.1417836   1.8962938   0.1165772  )
        97           AU  tau(  97) = (   2.2845431   2.1433437   0.1165772  )
        98           AU  tau(  98) = (   2.2845431   1.8962938   0.1165772  )
        99           AU  tau(  99) = (   1.4992193   2.1021445   0.0000000  )
       100           AU  tau( 100) = (   1.4992193   1.8550456   0.0000000  )
       101           AU  tau( 101) = (   1.6420276   2.1021445   0.0000000  )
       102           AU  tau( 102) = (   1.6420276   1.8550456   0.0000000  )
       103           AU  tau( 103) = (   1.7847871   2.1021445   0.0000000  )
       104           AU  tau( 104) = (   1.7847871   1.8550456   0.0000000  )
       105           AU  tau( 105) = (   1.9275954   2.1021445   0.0000000  )
       106           AU  tau( 106) = (   1.9275954   1.8550456   0.0000000  )
       107           AU  tau( 107) = (   2.0704038   2.1021445   0.0000000  )
       108           AU  tau( 108) = (   2.0704038   1.8550456   0.0000000  )
       109           AU  tau( 109) = (   2.2131632   2.1021445   0.0000000  )
       110           AU  tau( 110) = (   2.2131632   1.8550456   0.0000000  )
       111           AU  tau( 111) = (   2.3559716   2.1021445   0.0000000  )
       112           AU  tau( 112) = (   2.3559716   1.8550456   0.0000000  )

     number of k points=     2  Marzari-Vanderbilt smearing, width (Ry)=  0.0500
                       cart. coord. in units 2pi/alat
        k(    1) = (   0.2500000   0.5056706   0.0000000), wk =   1.0000000
        k(    2) = (  -0.2500000   0.5056706   0.0000000), wk =   1.0000000

     Dense  grid:  2158381 G-vectors     FFT dimensions: ( 180,  90, 288)

     Smooth grid:   763307 G-vectors     FFT dimensions: ( 125,  64, 200)

     Estimated max dynamical RAM per process >      93.76 MB

     Estimated total dynamical RAM >      26.37 GB

     Initial potential from superposition of free atoms

     starting charge 1230.69946, renormalised to 1232.00000

     negative rho (up, down):  3.043E+00 0.000E+00
     Starting wfcs are 1008 randomized atomic wfcs

     total cpu time spent up to now is        7.3 secs

     Self-consistent Calculation

     iteration #  1     ecut=    25.00 Ry     beta= 0.70
     Davidson diagonalization with overlap
     ethr =  1.00E-02,  avg # of iterations =  6.5

     Threshold (ethr) on eigenvalues was too large:
     Diagonalizing with lowered threshold

     Davidson diagonalization with overlap
     ethr =  4.46E-04,  avg # of iterations =  4.5

     negative rho (up, down):  2.992E+00 0.000E+00

     total cpu time spent up to now is       42.0 secs

     total energy              =  -11423.49598434 Ry
     Harris-Foulkes estimate   =  -11428.44888927 Ry
     estimated scf accuracy    <       6.31841210 Ry

     iteration #  2     ecut=    25.00 Ry     beta= 0.70
     Davidson diagonalization with overlap
     ethr =  5.13E-04,  avg # of iterations = 11.5

     negative rho (up, down):  2.994E+00 0.000E+00

     total cpu time spent up to now is       82.8 secs

     total energy              =  -11408.22276990 Ry
     Harris-Foulkes estimate   =  -11440.28744909 Ry
     estimated scf accuracy    <     197.27125167 Ry

     iteration #  3     ecut=    25.00 Ry     beta= 0.70
     Davidson diagonalization with overlap
     ethr =  5.13E-04,  avg # of iterations =  6.0

     negative rho (up, down):  3.039E+00 0.000E+00

     total cpu time spent up to now is      112.7 secs

     total energy              =  -11426.39807339 Ry
     Harris-Foulkes estimate   =  -11427.97922508 Ry
     estimated scf accuracy    <       5.27625368 Ry

     iteration #  4     ecut=    25.00 Ry     beta= 0.70
     Davidson diagonalization with overlap
     ethr =  4.28E-04,  avg # of iterations =  3.0

     negative rho (up, down):  3.046E+00 0.000E+00

     total cpu time spent up to now is      127.5 secs

     total energy              =  -11426.62269943 Ry
     Harris-Foulkes estimate   =  -11427.34903883 Ry
     estimated scf accuracy    <       4.27362677 Ry

     iteration #  5     ecut=    25.00 Ry     beta= 0.70
     Davidson diagonalization with overlap
     ethr =  3.47E-04,  avg # of iterations =  4.0

     negative rho (up, down):  3.061E+00 0.000E+00

     total cpu time spent up to now is      141.8 secs

     total energy              =  -11426.86836193 Ry
     Harris-Foulkes estimate   =  -11427.36350169 Ry
     estimated scf accuracy    <       4.84395705 Ry

     iteration #  6     ecut=    25.00 Ry     beta= 0.70
     Davidson diagonalization with overlap
     ethr =  3.47E-04,  avg # of iterations =  1.0

     negative rho (up, down):  3.070E+00 0.000E+00

     total cpu time spent up to now is      151.8 secs

     total energy              =  -11427.08109953 Ry
     Harris-Foulkes estimate   =  -11427.10061113 Ry
     estimated scf accuracy    <       0.08456862 Ry

     iteration #  7     ecut=    25.00 Ry     beta= 0.70
     Davidson diagonalization with overlap
     ethr =  6.86E-06,  avg # of iterations = 11.0

     negative rho (up, down):  3.080E+00 0.000E+00

     total cpu time spent up to now is      185.7 secs

     total energy              =  -11427.07322410 Ry
     Harris-Foulkes estimate   =  -11427.11673886 Ry
     estimated scf accuracy    <       0.20761460 Ry

     iteration #  8     ecut=    25.00 Ry     beta= 0.70
     Davidson diagonalization with overlap
     ethr =  6.86E-06,  avg # of iterations =  8.0

     negative rho (up, down):  3.080E+00 0.000E+00

     total cpu time spent up to now is      209.6 secs

     total energy              =  -11427.09022001 Ry
     Harris-Foulkes estimate   =  -11427.09643870 Ry
     estimated scf accuracy    <       0.05404514 Ry

     iteration #  9     ecut=    25.00 Ry     beta= 0.70
     Davidson diagonalization with overlap
     ethr =  4.39E-06,  avg # of iterations =  4.0

     negative rho (up, down):  3.082E+00 0.000E+00

     total cpu time spent up to now is      224.1 secs

     total energy              =  -11427.09282308 Ry
     Harris-Foulkes estimate   =  -11427.09513979 Ry
     estimated scf accuracy    <       0.02132089 Ry

     iteration # 10     ecut=    25.00 Ry     beta= 0.70
     Davidson diagonalization with overlap
     ethr =  1.73E-06,  avg # of iterations =  3.0

     negative rho (up, down):  3.083E+00 0.000E+00

     total cpu time spent up to now is      237.3 secs

     total energy              =  -11427.09342192 Ry
     Harris-Foulkes estimate   =  -11427.09457120 Ry
     estimated scf accuracy    <       0.00478462 Ry

     iteration # 11     ecut=    25.00 Ry     beta= 0.70
     Davidson diagonalization with overlap
     ethr =  3.88E-07,  avg # of iterations =  2.0

     negative rho (up, down):  3.083E+00 0.000E+00

     total cpu time spent up to now is      248.6 secs

     total energy              =  -11427.09370134 Ry
     Harris-Foulkes estimate   =  -11427.09418710 Ry
     estimated scf accuracy    <       0.00254574 Ry

     iteration # 12     ecut=    25.00 Ry     beta= 0.70
     Davidson diagonalization with overlap
     ethr =  2.07E-07,  avg # of iterations =  1.0

     negative rho (up, down):  3.083E+00 0.000E+00

     total cpu time spent up to now is      258.6 secs

     total energy              =  -11427.09381262 Ry
     Harris-Foulkes estimate   =  -11427.09415449 Ry
     estimated scf accuracy    <       0.00274628 Ry

     iteration # 13     ecut=    25.00 Ry     beta= 0.70
     Davidson diagonalization with overlap
     ethr =  2.07E-07,  avg # of iterations =  1.0

     negative rho (up, down):  3.084E+00 0.000E+00

     total cpu time spent up to now is      268.9 secs

     total energy              =  -11427.09385012 Ry
     Harris-Foulkes estimate   =  -11427.09416824 Ry
     estimated scf accuracy    <       0.00235972 Ry

     iteration # 14     ecut=    25.00 Ry     beta= 0.70
     Davidson diagonalization with overlap
     ethr =  1.92E-07,  avg # of iterations =  1.0

     negative rho (up, down):  3.084E+00 0.000E+00

     total cpu time spent up to now is      280.0 secs

     total energy              =  -11427.09397776 Ry
     Harris-Foulkes estimate   =  -11427.09405029 Ry
     estimated scf accuracy    <       0.00025492 Ry

     iteration # 15     ecut=    25.00 Ry     beta= 0.70
     Davidson diagonalization with overlap
     ethr =  2.07E-08,  avg # of iterations =  2.0

     negative rho (up, down):  3.084E+00 0.000E+00

     total cpu time spent up to now is      291.7 secs

     total energy              =  -11427.09397516 Ry
     Harris-Foulkes estimate   =  -11427.09405985 Ry
     estimated scf accuracy    <       0.00084901 Ry

     iteration # 16     ecut=    25.00 Ry     beta= 0.70
     Davidson diagonalization with overlap
     ethr =  2.07E-08,  avg # of iterations =  1.0

     negative rho (up, down):  3.084E+00 0.000E+00

     total cpu time spent up to now is      301.9 secs

     total energy              =  -11427.09401604 Ry
     Harris-Foulkes estimate   =  -11427.09402635 Ry
     estimated scf accuracy    <       0.00005308 Ry

     iteration # 17     ecut=    25.00 Ry     beta= 0.70
     Davidson diagonalization with overlap
     ethr =  4.31E-09,  avg # of iterations =  2.0

     negative rho (up, down):  3.085E+00 0.000E+00

     total cpu time spent up to now is      313.4 secs

     total energy              =  -11427.09401981 Ry
     Harris-Foulkes estimate   =  -11427.09402320 Ry
     estimated scf accuracy    <       0.00001219 Ry

     iteration # 18     ecut=    25.00 Ry     beta= 0.70
     Davidson diagonalization with overlap
     ethr =  9.90E-10,  avg # of iterations =  2.0

     negative rho (up, down):  3.085E+00 0.000E+00

     total cpu time spent up to now is      325.1 secs

     total energy              =  -11427.09402089 Ry
     Harris-Foulkes estimate   =  -11427.09402227 Ry
     estimated scf accuracy    <       0.00000457 Ry

     iteration # 19     ecut=    25.00 Ry     beta= 0.70
     Davidson diagonalization with overlap
     ethr =  3.71E-10,  avg # of iterations =  2.0

     negative rho (up, down):  3.085E+00 0.000E+00

     total cpu time spent up to now is      336.8 secs

     total energy              =  -11427.09401954 Ry
     Harris-Foulkes estimate   =  -11427.09402377 Ry
     estimated scf accuracy    <       0.00005098 Ry

     iteration # 20     ecut=    25.00 Ry     beta= 0.70
     Davidson diagonalization with overlap
     ethr =  3.71E-10,  avg # of iterations =  2.0

     negative rho (up, down):  3.085E+00 0.000E+00

     total cpu time spent up to now is      348.3 secs

     total energy              =  -11427.09402157 Ry
     Harris-Foulkes estimate   =  -11427.09402188 Ry
     estimated scf accuracy    <       0.00000144 Ry

     iteration # 21     ecut=    25.00 Ry     beta= 0.70
     Davidson diagonalization with overlap
     ethr =  1.17E-10,  avg # of iterations =  2.0

     negative rho (up, down):  3.085E+00 0.000E+00

     total cpu time spent up to now is      359.6 secs

     End of self-consistent calculation

          k = 0.2500 0.5057 0.0000 ( 95386 PWs)   bands (ev):

    -8.0048  -7.7854  -7.3695  -7.1564  -6.9589  -6.8865  -6.8075  -6.6747
    -6.6109  -6.2901  -6.2194  -6.1890  -6.1051  -6.0374  -5.9302  -5.9279
    -5.8888  -5.8391  -5.8310  -5.8250  -5.7939  -5.7361  -5.7240  -5.6815
    -5.6675  -5.6496  -5.6454  -5.6402  -5.5498  -5.5384  -5.5310  -5.5227
    -5.5165  -5.5073  -5.4893  -5.4813  -5.4630  -5.4595  -5.4283  -5.3752
    -5.3691  -5.3537  -5.3516  -5.3171  -5.3099  -5.2939  -5.2913  -5.2337
    -5.2327  -5.2327  -5.2283  -5.2184  -5.1997  -5.1787  -5.1554  -5.1447
    -5.1299  -5.1244  -5.1157  -5.1141  -5.1106  -5.1092  -5.0881  -5.0675
    -5.0647  -5.0570  -5.0560  -5.0489  -5.0407  -5.0377  -5.0304  -4.9878
    -4.9821  -4.9669  -4.9638  -4.9481  -4.9343  -4.9324  -4.9289  -4.9268
    -4.9176  -4.9160  -4.9069  -4.9039  -4.8858  -4.8854  -4.8817  -4.8719
    -4.8719  -4.8621  -4.8596  -4.8487  -4.8280  -4.8270  -4.8247  -4.8221
    -4.7418  -4.7393  -4.7376  -4.7368  -4.7329  -4.7255  -4.7211  -4.7209
    -4.7202  -4.7120  -4.6995  -4.6848  -4.6742  -4.6165  -4.6001  -4.5970
    -4.5934  -4.5850  -4.5624  -4.5610  -4.5574  -4.5268  -4.4706  -4.4695
    -4.4509  -4.4138  -4.3979  -4.3951  -4.3935  -4.3932  -4.3917  -4.3854
    -4.3553  -4.3457  -4.3451  -4.3371  -4.3256  -4.3229  -4.3201  -4.3036
    -4.3021  -4.2738  -4.2645  -4.2573  -4.2477  -4.2452  -4.2294  -4.2105
    -4.1938  -4.1679  -4.1561  -4.1550  -4.1546  -4.1531  -4.1483  -4.1395
    -4.1373  -4.1044  -4.0972  -4.0834  -4.0774  -4.0762  -4.0698  -4.0544
    -4.0505  -4.0353  -4.0306  -4.0240  -4.0213  -4.0172  -4.0084  -3.9939
    -3.9867  -3.9707  -3.9586  -3.9275  -3.9140  -3.8985  -3.8931  -3.8896
    -3.8709  -3.8707  -3.8611  -3.8374  -3.8365  -3.8329  -3.8164  -3.8084
    -3.7859  -3.7801  -3.7392  -3.7358  -3.7265  -3.7241  -3.7149  -3.7101
    -3.7009  -3.6852  -3.6807  -3.6711  -3.6589  -3.6405  -3.6192  -3.6192
    -3.6172  -3.6162  -3.6055  -3.6018  -3.5990  -3.5951  -3.5916  -3.5797
    -3.5698  -3.5670  -3.5645  -3.5595  -3.5575  -3.5508  -3.5458  -3.5448
    -3.5435  -3.5342  -3.5235  -3.4922  -3.4822  -3.4563  -3.4540  -3.4429
    -3.4425  -3.4404  -3.4392  -3.4260  -3.4214  -3.4127  -3.4051  -3.3969
    -3.3878  -3.3797  -3.3740  -3.3719  -3.3703  -3.3695  -3.3643  -3.3562
    -3.3525  -3.3373  -3.3356  -3.3268  -3.3260  -3.3244  -3.3199  -3.3171
    -3.3133  -3.3129  -3.3091  -3.3086  -3.2997  -3.2969  -3.2919  -3.2860
    -3.2814  -3.2794  -3.2590  -3.2497  -3.2467  -3.2437  -3.2381  -3.2288
    -3.2196  -3.2189  -3.2142  -3.2102  -3.2021  -3.1997  -3.1889  -3.1805
    -3.1789  -3.1732  -3.1721  -3.1684  -3.1668  -3.1592  -3.1580  -3.1458
    -3.1456  -3.1216  -3.1212  -3.1106  -3.0982  -3.0906  -3.0843  -3.0579
    -3.0413  -3.0400  -3.0344  -3.0332  -3.0262  -3.0239  -3.0231  -3.0181
    -3.0172  -3.0163  -3.0155  -3.0091  -3.0024  -3.0015  -2.9893  -2.9848
    -2.9818  -2.9807  -2.9800  -2.9749  -2.9749  -2.9710  -2.9686  -2.9508
    -2.9151  -2.9130  -2.8900  -2.8758  -2.8742  -2.8623  -2.8597  -2.8493
    -2.8475  -2.8280  -2.8220  -2.8204  -2.7997  -2.7962  -2.7955  -2.7830
    -2.7797  -2.7753  -2.7673  -2.7641  -2.7502  -2.7491  -2.7468  -2.7421
    -2.7232  -2.7224  -2.7206  -2.7180  -2.6628  -2.6543  -2.6461  -2.6366
    -2.6295  -2.6261  -2.6215  -2.5955  -2.5801  -2.5697  -2.5674  -2.5669
    -2.5635  -2.5590  -2.5531  -2.5408  -2.5281  -2.5252  -2.5194  -2.5161
    -2.5090  -2.5072  -2.5011  -2.4929  -2.4899  -2.4863  -2.4804  -2.4792
    -2.4732  -2.4723  -2.4665  -2.4656  -2.4598  -2.4490  -2.4353  -2.4347
    -2.4064  -2.4001  -2.3982  -2.3743  -2.3703  -2.3632  -2.3559  -2.3558
    -2.3487  -2.3452  -2.3356  -2.3324  -2.3153  -2.3003  -2.2928  -2.2719
    -2.2685  -2.2667  -2.2637  -2.2488  -2.2432  -2.2335  -2.2317  -2.2150
    -2.2126  -2.2055  -2.2052  -2.1979  -2.1970  -2.1782  -2.1448  -2.1361
    -2.1304  -2.1058  -2.1023  -2.0848  -2.0674  -2.0484  -2.0475  -2.0441
    -2.0373  -2.0319  -2.0023  -1.9983  -1.9948  -1.9640  -1.9606  -1.9573
    -1.9560  -1.9519  -1.9480  -1.9453  -1.9393  -1.9387  -1.9369  -1.9308
    -1.9299  -1.9275  -1.9170  -1.9122  -1.9078  -1.9020  -1.8646  -1.8556
    -1.8550  -1.8385  -1.8310  -1.8273  -1.8232  -1.8170  -1.8161  -1.8136
    -1.8115  -1.8014  -1.8001  -1.7990  -1.7934  -1.7665  -1.7596  -1.7585
    -1.7575  -1.7483  -1.7432  -1.7425  -1.7365  -1.7365  -1.7266  -1.7238
    -1.7062  -1.7047  -1.6988  -1.6979  -1.6881  -1.6744  -1.6702  -1.6658
    -1.6635  -1.6587  -1.6508  -1.6288  -1.6130  -1.6038  -1.5993  -1.5974
    -1.5791  -1.5760  -1.5754  -1.5740  -1.5601  -1.5447  -1.5043  -1.4991
    -1.4926  -1.4880  -1.4800  -1.4791  -1.4706  -1.4673  -1.4598  -1.4580
    -1.4511  -1.4444  -1.4336  -1.4324  -1.4261  -1.4132  -1.4126  -1.4074
    -1.3996  -1.3817  -1.3717  -1.3685  -1.3629  -1.3579  -1.3454  -1.3396
    -1.3277  -1.3256  -1.3219  -1.3073  -1.3026  -1.2977  -1.2932  -1.2873
    -1.2871  -1.2778  -1.2765  -1.2670  -1.2646  -1.2554  -1.2536  -1.2497
    -1.2416  -1.2397  -1.2280  -1.2276  -1.2199  -1.2193  -1.2191  -1.2189
    -1.2153  -1.2088  -1.2059  -1.1780  -1.1767  -1.1706  -1.1565  -1.1554
    -1.1450  -1.1401  -1.1379  -1.1335  -1.1300  -1.1250  -1.1245  -1.1217
    -1.1189  -1.1076  -1.1059  -1.0985  -1.0874  -1.0828  -1.0800  -1.0780
    -1.0772  -1.0757  -1.0724  -1.0628  -1.0579  -1.0550  -1.0537  -1.0508
    -1.0501  -1.0442  -1.0045  -0.9811  -0.9698  -0.9649  -0.9522  -0.9372
    -0.9359  -0.9293  -0.9245  -0.9208  -0.9161  -0.9077  -0.9003  -0.8820
    -0.8781  -0.8614  -0.8300  -0.8281  -0.8260  -0.7659  -0.6681  -0.6317
    -0.6016  -0.5945  -0.5467  -0.4528  -0.3797  -0.1936  -0.1602  -0.1189
    -0.0036   0.0221   0.0572   0.1552   0.1620   0.1919   0.2706   0.2882
     0.3155   0.3346   0.5887   0.5921   0.6430   0.6718   0.7319   0.7783
     0.8027   0.8035   0.9241   0.9706   0.9831   1.1553   1.1639   1.1984
     1.3017   1.3262   1.3632   1.3875   1.4796   1.5213   1.5257   1.7954
     1.8681   1.8790   1.8972   1.8999   1.9100   1.9751   1.9821   2.0315
     2.0616   2.0733   2.1943   2.4010   2.4063   2.4083   2.4468   2.4514
     2.6431   2.6540   2.6775   2.7098   2.7216   2.7962   2.8416   3.1810
     3.2035   3.2179   3.2817   3.3295   3.3641   3.3778   3.5443   3.5475
     3.5699   3.6169   3.6259   3.7992   3.8064   3.8938   3.9030   4.0004
     4.0226   4.1242   4.1803   4.2439   4.2474   4.2704   4.3018   4.3973
     4.4720   4.4974   4.5210   4.5649   4.6630   4.8052   4.8115   4.8410
     4.8498   4.8523   4.8939   4.9670   4.9890   5.0741   5.0907   5.1945
     5.2015   5.2118   5.2380   5.2618   5.3013   5.4403   5.4932   5.5255
     5.5326   5.5331   5.5444   5.6498   5.6730   5.7195   5.7318   5.8368
     5.8522   5.8738   5.8957   5.9063   5.9064   5.9800   5.9912   6.0159
     6.0171   6.0265   6.0328   6.0422   6.0869   6.1382   6.1418   6.1477
     6.1657   6.2221   6.2292   6.3071   6.4016   6.4091   6.4469   6.4473
     6.4738   6.5148   6.5237   6.5725   6.5878   6.6322   6.6406   6.6540
     6.6608   6.6908   6.7353   6.7482   6.7688   6.8237   6.8288   6.9306
     6.9365   6.9722   6.9727   6.9987   7.0275   7.0636   7.1003   7.1088
     7.1284   7.1636   7.1906   7.1919   7.1998   7.2023   7.2795   7.2909
     7.3065   7.3547   7.3591   7.4025   7.4172   7.4339   7.4641   7.5086
     7.5608   7.5675   7.6062   7.6175   7.6582   7.6582   7.6665   7.6693
     7.6930   7.6938   7.7179   7.7229   7.7376   7.7420   7.7924   7.8310
     7.8580   7.8671   7.9401   7.9889   7.9963   8.0016   8.0249   8.0923

          k =-0.2500 0.5057 0.0000 ( 95386 PWs)   bands (ev):

    -8.0048  -7.7854  -7.3695  -7.1564  -6.9589  -6.8865  -6.8075  -6.6747
    -6.6109  -6.2901  -6.2194  -6.1890  -6.1051  -6.0374  -5.9302  -5.9279
    -5.8888  -5.8391  -5.8310  -5.8250  -5.7939  -5.7361  -5.7240  -5.6815
    -5.6675  -5.6496  -5.6454  -5.6402  -5.5498  -5.5384  -5.5310  -5.5227
    -5.5165  -5.5073  -5.4893  -5.4813  -5.4630  -5.4595  -5.4283  -5.3752
    -5.3691  -5.3537  -5.3516  -5.3171  -5.3099  -5.2939  -5.2913  -5.2337
    -5.2327  -5.2327  -5.2283  -5.2184  -5.1997  -5.1787  -5.1554  -5.1447
    -5.1299  -5.1244  -5.1157  -5.1142  -5.1106  -5.1092  -5.0881  -5.0675
    -5.0647  -5.0570  -5.0560  -5.0489  -5.0407  -5.0377  -5.0304  -4.9878
    -4.9821  -4.9669  -4.9638  -4.9481  -4.9343  -4.9324  -4.9289  -4.9268
    -4.9176  -4.9160  -4.9069  -4.9039  -4.8858  -4.8854  -4.8817  -4.8719
    -4.8719  -4.8621  -4.8596  -4.8487  -4.8280  -4.8270  -4.8247  -4.8221
    -4.7418  -4.7393  -4.7376  -4.7368  -4.7329  -4.7255  -4.7212  -4.7208
    -4.7202  -4.7120  -4.6995  -4.6848  -4.6742  -4.6165  -4.6001  -4.5970
    -4.5934  -4.5850  -4.5624  -4.5610  -4.5574  -4.5268  -4.4706  -4.4695
    -4.4509  -4.4138  -4.3979  -4.3951  -4.3935  -4.3932  -4.3917  -4.3854
    -4.3553  -4.3457  -4.3451  -4.3371  -4.3256  -4.3229  -4.3201  -4.3036
    -4.3021  -4.2738  -4.2645  -4.2574  -4.2477  -4.2452  -4.2294  -4.2105
    -4.1938  -4.1679  -4.1561  -4.1550  -4.1545  -4.1531  -4.1483  -4.1395
    -4.1373  -4.1044  -4.0972  -4.0834  -4.0774  -4.0762  -4.0698  -4.0544
    -4.0505  -4.0353  -4.0306  -4.0240  -4.0213  -4.0172  -4.0084  -3.9939
    -3.9867  -3.9707  -3.9586  -3.9275  -3.9140  -3.8985  -3.8931  -3.8896
    -3.8709  -3.8707  -3.8611  -3.8374  -3.8365  -3.8329  -3.8164  -3.8084
    -3.7859  -3.7801  -3.7392  -3.7358  -3.7265  -3.7241  -3.7149  -3.7101
    -3.7009  -3.6852  -3.6807  -3.6711  -3.6589  -3.6405  -3.6192  -3.6191
    -3.6172  -3.6162  -3.6055  -3.6018  -3.5990  -3.5951  -3.5916  -3.5797
    -3.5698  -3.5670  -3.5645  -3.5595  -3.5575  -3.5508  -3.5458  -3.5448
    -3.5435  -3.5342  -3.5235  -3.4922  -3.4822  -3.4563  -3.4540  -3.4429
    -3.4425  -3.4404  -3.4392  -3.4260  -3.4214  -3.4127  -3.4051  -3.3969
    -3.3879  -3.3797  -3.3740  -3.3720  -3.3703  -3.3695  -3.3643  -3.3562
    -3.3525  -3.3373  -3.3356  -3.3268  -3.3261  -3.3244  -3.3199  -3.3171
    -3.3133  -3.3129  -3.3091  -3.3086  -3.2997  -3.2969  -3.2919  -3.2860
    -3.2814  -3.2794  -3.2590  -3.2497  -3.2467  -3.2437  -3.2381  -3.2288
    -3.2196  -3.2188  -3.2142  -3.2102  -3.2021  -3.1997  -3.1889  -3.1805
    -3.1789  -3.1732  -3.1721  -3.1684  -3.1668  -3.1592  -3.1580  -3.1458
    -3.1456  -3.1216  -3.1212  -3.1106  -3.0982  -3.0906  -3.0843  -3.0579
    -3.0413  -3.0399  -3.0344  -3.0333  -3.0262  -3.0239  -3.0231  -3.0181
    -3.0173  -3.0163  -3.0155  -3.0091  -3.0024  -3.0014  -2.9893  -2.9849
    -2.9818  -2.9807  -2.9800  -2.9750  -2.9749  -2.9710  -2.9686  -2.9508
    -2.9150  -2.9130  -2.8900  -2.8758  -2.8742  -2.8623  -2.8597  -2.8493
    -2.8475  -2.8280  -2.8220  -2.8204  -2.7997  -2.7962  -2.7956  -2.7830
    -2.7797  -2.7753  -2.7673  -2.7641  -2.7502  -2.7491  -2.7468  -2.7421
    -2.7232  -2.7225  -2.7206  -2.7180  -2.6628  -2.6543  -2.6461  -2.6366
    -2.6295  -2.6261  -2.6215  -2.5955  -2.5801  -2.5697  -2.5674  -2.5669
    -2.5635  -2.5590  -2.5531  -2.5408  -2.5281  -2.5252  -2.5194  -2.5161
    -2.5090  -2.5071  -2.5011  -2.4929  -2.4899  -2.4863  -2.4804  -2.4792
    -2.4732  -2.4723  -2.4665  -2.4656  -2.4598  -2.4490  -2.4353  -2.4347
    -2.4064  -2.4001  -2.3982  -2.3743  -2.3703  -2.3632  -2.3559  -2.3558
    -2.3487  -2.3452  -2.3356  -2.3324  -2.3153  -2.3003  -2.2928  -2.2719
    -2.2685  -2.2667  -2.2637  -2.2488  -2.2432  -2.2335  -2.2317  -2.2150
    -2.2126  -2.2055  -2.2052  -2.1979  -2.1970  -2.1782  -2.1448  -2.1361
    -2.1304  -2.1058  -2.1023  -2.0847  -2.0674  -2.0484  -2.0475  -2.0441
    -2.0373  -2.0319  -2.0023  -1.9983  -1.9948  -1.9640  -1.9606  -1.9573
    -1.9560  -1.9519  -1.9480  -1.9453  -1.9393  -1.9387  -1.9369  -1.9309
    -1.9299  -1.9275  -1.9170  -1.9122  -1.9078  -1.9020  -1.8646  -1.8556
    -1.8550  -1.8385  -1.8310  -1.8273  -1.8232  -1.8170  -1.8161  -1.8136
    -1.8115  -1.8014  -1.8001  -1.7990  -1.7934  -1.7665  -1.7596  -1.7585
    -1.7575  -1.7483  -1.7432  -1.7425  -1.7365  -1.7365  -1.7266  -1.7238
    -1.7062  -1.7047  -1.6988  -1.6979  -1.6881  -1.6744  -1.6702  -1.6658
    -1.6635  -1.6587  -1.6508  -1.6288  -1.6130  -1.6038  -1.5993  -1.5974
    -1.5791  -1.5760  -1.5754  -1.5740  -1.5601  -1.5447  -1.5043  -1.4991
    -1.4926  -1.4880  -1.4800  -1.4791  -1.4706  -1.4673  -1.4598  -1.4580
    -1.4511  -1.4444  -1.4336  -1.4324  -1.4261  -1.4132  -1.4126  -1.4074
    -1.3996  -1.3817  -1.3717  -1.3685  -1.3629  -1.3580  -1.3453  -1.3396
    -1.3277  -1.3256  -1.3219  -1.3073  -1.3026  -1.2977  -1.2932  -1.2873
    -1.2871  -1.2778  -1.2765  -1.2670  -1.2646  -1.2554  -1.2536  -1.2497
    -1.2416  -1.2397  -1.2280  -1.2276  -1.2199  -1.2193  -1.2191  -1.2189
    -1.2153  -1.2088  -1.2059  -1.1780  -1.1767  -1.1706  -1.1565  -1.1554
    -1.1450  -1.1401  -1.1379  -1.1335  -1.1300  -1.1250  -1.1245  -1.1217
    -1.1189  -1.1076  -1.1059  -1.0985  -1.0874  -1.0828  -1.0800  -1.0780
    -1.0772  -1.0757  -1.0724  -1.0629  -1.0579  -1.0550  -1.0537  -1.0508
    -1.0501  -1.0442  -1.0044  -0.9811  -0.9698  -0.9649  -0.9522  -0.9374
    -0.9358  -0.9293  -0.9245  -0.9208  -0.9161  -0.9077  -0.9003  -0.8820
    -0.8781  -0.8614  -0.8300  -0.8281  -0.8260  -0.7659  -0.6681  -0.6317
    -0.6016  -0.5945  -0.5467  -0.4528  -0.3797  -0.1936  -0.1602  -0.1189
    -0.0036   0.0221   0.0572   0.1552   0.1620   0.1919   0.2706   0.2882
     0.3155   0.3346   0.5887   0.5921   0.6430   0.6718   0.7319   0.7783
     0.8027   0.8035   0.9240   0.9706   0.9831   1.1553   1.1639   1.1984
     1.3017   1.3262   1.3632   1.3875   1.4796   1.5213   1.5257   1.7954
     1.8681   1.8790   1.8972   1.8999   1.9100   1.9752   1.9821   2.0315
     2.0616   2.0733   2.1943   2.4010   2.4063   2.4083   2.4468   2.4514
     2.6431   2.6540   2.6775   2.7098   2.7216   2.7962   2.8416   3.1810
     3.2035   3.2179   3.2817   3.3295   3.3641   3.3778   3.5443   3.5475
     3.5699   3.6169   3.6259   3.7992   3.8064   3.8938   3.9030   4.0004
     4.0226   4.1242   4.1803   4.2439   4.2474   4.2704   4.3018   4.3973
     4.4720   4.4974   4.5210   4.5649   4.6630   4.8052   4.8115   4.8410
     4.8498   4.8523   4.8939   4.9670   4.9890   5.0741   5.0907   5.1945
     5.2015   5.2118   5.2380   5.2618   5.3013   5.4403   5.4932   5.5255
     5.5326   5.5330   5.5444   5.6498   5.6730   5.7195   5.7318   5.8368
     5.8522   5.8738   5.8957   5.9063   5.9064   5.9800   5.9912   6.0159
     6.0171   6.0265   6.0328   6.0422   6.0869   6.1382   6.1418   6.1477
     6.1657   6.2221   6.2292   6.3071   6.4016   6.4091   6.4469   6.4473
     6.4738   6.5148   6.5237   6.5725   6.5878   6.6322   6.6406   6.6540
     6.6608   6.6908   6.7353   6.7482   6.7688   6.8237   6.8288   6.9306
     6.9365   6.9722   6.9727   6.9987   7.0275   7.0636   7.1003   7.1088
     7.1284   7.1636   7.1906   7.1919   7.1998   7.2023   7.2795   7.2909
     7.3065   7.3547   7.3591   7.4025   7.4172   7.4339   7.4641   7.5086
     7.5608   7.5675   7.6062   7.6175   7.6582   7.6582   7.6665   7.6693
     7.6930   7.6938   7.7179   7.7229   7.7376   7.7420   7.7924   7.8310
     7.8580   7.8671   7.9401   7.9889   7.9963   8.0016   8.0249   8.0923

     the Fermi energy is     0.7844 ev

!    total energy              =  -11427.09402122 Ry
     Harris-Foulkes estimate   =  -11427.09402179 Ry
     estimated scf accuracy    <       0.00000054 Ry

     The total energy is the sum of the following terms:

     one-electron contribution = -129707.70118115 Ry
     hartree contribution      =   65677.88610305 Ry
     xc contribution           =   -5523.82434783 Ry
     ewald contribution        =   58126.48229572 Ry
     smearing contrib. (-TS)   =       0.06310899 Ry

     convergence has been achieved in  21 iterations

     negative rho (up, down):  3.085E+00 0.000E+00

     Forces acting on atoms (cartesian axes, Ry/au):

     atom    1 type  1   force =    -0.00093792    0.00015322    0.00831544
     atom    2 type  1   force =    -0.00092669   -0.00020884    0.00801776
     atom    3 type  1   force =    -0.00005587    0.00021269    0.00895073
     atom    4 type  1   force =    -0.00005333   -0.00015373    0.00864817
     atom    5 type  1   force =     0.00014389    0.00024310    0.00902742
     atom    6 type  1   force =     0.00014309   -0.00012333    0.00872316
     atom    7 type  1   force =    -0.00012967    0.00022658    0.00899056
     atom    8 type  1   force =    -0.00013042   -0.00014096    0.00868830
     atom    9 type  1   force =    -0.00003256    0.00022684    0.00899899
     atom   10 type  1   force =    -0.00003118   -0.00014399    0.00869642
     atom   11 type  1   force =    -0.00017585    0.00023850    0.00904717
     atom   12 type  1   force =    -0.00017578   -0.00013408    0.00874381
     atom   13 type  1   force =     0.00080958    0.00026232    0.00880961
     atom   14 type  1   force =     0.00080640   -0.00010826    0.00850965
     atom   15 type  1   force =    -0.00124880    0.00044900   -0.00544982
     atom   16 type  1   force =    -0.00124242   -0.00010404   -0.00555358
     atom   17 type  1   force =    -0.00015686    0.00042341   -0.00538015
     atom   18 type  1   force =    -0.00015372   -0.00014313   -0.00548089
     atom   19 type  1   force =     0.00010044    0.00042866   -0.00525950
     atom   20 type  1   force =     0.00009909   -0.00013801   -0.00536203
     atom   21 type  1   force =    -0.00016532    0.00043277   -0.00521513
     atom   22 type  1   force =    -0.00016583   -0.00013450   -0.00531682
     atom   23 type  1   force =     0.00003470    0.00043285   -0.00525281
     atom   24 type  1   force =     0.00003478   -0.00013413   -0.00535649
     atom   25 type  1   force =    -0.00014172    0.00042716   -0.00535394
     atom   26 type  1   force =    -0.00014219   -0.00014217   -0.00545879
     atom   27 type  1   force =     0.00108192    0.00042559   -0.00542666
     atom   28 type  1   force =     0.00107919   -0.00013817   -0.00553162
     atom   29 type  1   force =    -0.00051463   -0.00007439    0.00851830
     atom   30 type  1   force =    -0.00051411   -0.00053053    0.00856961
     atom   31 type  1   force =     0.00005003   -0.00009450    0.00874376
     atom   32 type  1   force =     0.00004984   -0.00055482    0.00879718
     atom   33 type  1   force =     0.00013102   -0.00010353    0.00871077
     atom   34 type  1   force =     0.00012986   -0.00056697    0.00876162
     atom   35 type  1   force =    -0.00010185   -0.00009140    0.00875998
     atom   36 type  1   force =    -0.00010317   -0.00055273    0.00881130
     atom   37 type  1   force =    -0.00023351   -0.00009960    0.00872615
     atom   38 type  1   force =    -0.00023495   -0.00055862    0.00877834
     atom   39 type  1   force =     0.00007986   -0.00010695    0.00875103
     atom   40 type  1   force =     0.00007987   -0.00056436    0.00880441
     atom   41 type  1   force =     0.00095195   -0.00019413    0.00801912
     atom   42 type  1   force =     0.00095643   -0.00063887    0.00806997
     atom   43 type  1   force =    -0.00072743   -0.00008494   -0.00545259
     atom   44 type  1   force =    -0.00073184   -0.00064680   -0.00540828
     atom   45 type  1   force =    -0.00002812   -0.00008573   -0.00535766
     atom   46 type  1   force =    -0.00002974   -0.00065024   -0.00531397
     atom   47 type  1   force =     0.00013126   -0.00007689   -0.00526848
     atom   48 type  1   force =     0.00013354   -0.00064134   -0.00522665
     atom   49 type  1   force =    -0.00008502   -0.00008054   -0.00526305
     atom   50 type  1   force =    -0.00008715   -0.00064530   -0.00522340
     atom   51 type  1   force =    -0.00019530   -0.00007924   -0.00534111
     atom   52 type  1   force =    -0.00019798   -0.00064041   -0.00529899
     atom   53 type  1   force =     0.00016500   -0.00009232   -0.00545576
     atom   54 type  1   force =     0.00016863   -0.00065458   -0.00541132
     atom   55 type  1   force =     0.00123669   -0.00005231   -0.00550072
     atom   56 type  1   force =     0.00124474   -0.00060179   -0.00545766
     atom   57 type  1   force =    -0.00098305    0.00069631   -0.00837835
     atom   58 type  1   force =    -0.00097517    0.00022662   -0.00803151
     atom   59 type  1   force =    -0.00017157    0.00065140   -0.00899643
     atom   60 type  1   force =    -0.00016928    0.00017302   -0.00864828
     atom   61 type  1   force =     0.00006792    0.00062278   -0.00905224
     atom   62 type  1   force =     0.00006855    0.00014185   -0.00870350
     atom   63 type  1   force =    -0.00010856    0.00063831   -0.00901014
     atom   64 type  1   force =    -0.00011066    0.00015853   -0.00866298
     atom   65 type  1   force =     0.00004996    0.00063767   -0.00902801
     atom   66 type  1   force =     0.00004917    0.00016051   -0.00867967
     atom   67 type  1   force =    -0.00008009    0.00062750   -0.00909391
     atom   68 type  1   force =    -0.00008120    0.00015019   -0.00874210
     atom   69 type  1   force =     0.00086199    0.00060181   -0.00887296
     atom   70 type  1   force =     0.00085833    0.00012698   -0.00852629
     atom   71 type  1   force =    -0.00077474    0.00078811    0.00519916
     atom   72 type  1   force =    -0.00077075    0.00019773    0.00537355
     atom   73 type  1   force =    -0.00008352    0.00079213    0.00523201
     atom   74 type  1   force =    -0.00008165    0.00019779    0.00540640
     atom   75 type  1   force =     0.00012457    0.00078315    0.00522191
     atom   76 type  1   force =     0.00012173    0.00018991    0.00539738
     atom   77 type  1   force =    -0.00006267    0.00078729    0.00519457
     atom   78 type  1   force =    -0.00006264    0.00019410    0.00537110
     atom   79 type  1   force =    -0.00015817    0.00078369    0.00518481
     atom   80 type  1   force =    -0.00015678    0.00019164    0.00535842
     atom   81 type  1   force =     0.00020455    0.00079510    0.00520128
     atom   82 type  1   force =     0.00020101    0.00020432    0.00537568
     atom   83 type  1   force =     0.00124736    0.00074188    0.00519508
     atom   84 type  1   force =     0.00124015    0.00016099    0.00536746
     atom   85 type  1   force =    -0.00126925    0.00008543    0.00535905
     atom   86 type  1   force =    -0.00127531   -0.00078364    0.00554078
     atom   87 type  1   force =    -0.00021195    0.00012455    0.00539480
     atom   88 type  1   force =    -0.00021376   -0.00076036    0.00557738
     atom   89 type  1   force =     0.00006659    0.00012106    0.00538422
     atom   90 type  1   force =     0.00006965   -0.00076736    0.00556794
     atom   91 type  1   force =    -0.00015505    0.00011494    0.00537343
     atom   92 type  1   force =    -0.00015380   -0.00077142    0.00555429
     atom   93 type  1   force =     0.00006805    0.00011582    0.00535296
     atom   94 type  1   force =     0.00006724   -0.00077188    0.00553319
     atom   95 type  1   force =    -0.00009684    0.00012318    0.00535419
     atom   96 type  1   force =    -0.00009647   -0.00076305    0.00553319
     atom   97 type  1   force =     0.00110058    0.00012028    0.00534259
     atom   98 type  1   force =     0.00110305   -0.00076262    0.00552306
     atom   99 type  1   force =    -0.00060592    0.00014694   -0.00851286
     atom  100 type  1   force =    -0.00060789   -0.00032241   -0.00857802
     atom  101 type  1   force =    -0.00005779    0.00017396   -0.00872013
     atom  102 type  1   force =    -0.00005855   -0.00030107   -0.00878519
     atom  103 type  1   force =     0.00010155    0.00018348   -0.00867344
     atom  104 type  1   force =     0.00010257   -0.00029330   -0.00873762
     atom  105 type  1   force =    -0.00004719    0.00016678   -0.00871938
     atom  106 type  1   force =    -0.00004531   -0.00030792   -0.00878355
     atom  107 type  1   force =    -0.00013695    0.00017751   -0.00870260
     atom  108 type  1   force =    -0.00013671   -0.00029730   -0.00876715
     atom  109 type  1   force =     0.00015917    0.00018128   -0.00875087
     atom  110 type  1   force =     0.00015974   -0.00028888   -0.00881641
     atom  111 type  1   force =     0.00095543    0.00026210   -0.00802102
     atom  112 type  1   force =     0.00095948   -0.00019894   -0.00808615

     Total force =     0.076760     Total SCF correction =     0.004183

     Writing output data file ./ausurf.save/
 
     init_run     :      6.17s CPU      6.69s WALL (       1 calls)
     electrons    :    343.81s CPU    352.50s WALL (       1 calls)
     forces       :      2.07s CPU      2.16s WALL (       1 calls)

     Called by init_run:
     wfcinit      :      4.73s CPU      5.01s WALL (       1 calls)
     potinit      :      0.10s CPU      0.15s WALL (       1 calls)
     hinit0       :      0.24s CPU      0.30s WALL (       1 calls)

     Called by electrons:
     c_bands      :    311.78s CPU    319.04s WALL (      22 calls)
     sum_band     :     29.66s CPU     30.60s WALL (      22 calls)
     v_of_rho     :      0.78s CPU      0.85s WALL (      22 calls)
     newd         :      1.06s CPU      1.29s WALL (      22 calls)
     mix_rho      :      0.39s CPU      0.40s WALL (      22 calls)

     Called by c_bands:
     init_us_2    :      0.58s CPU      0.60s WALL (      92 calls)
     cegterg      :    309.64s CPU    316.70s WALL (      44 calls)

     Called by sum_band:
     sum_band:bec :      0.57s CPU      0.57s WALL (      44 calls)
     addusdens    :      0.73s CPU      0.96s WALL (      22 calls)

     Called by *egterg:
     h_psi        :    119.30s CPU    122.21s WALL (     207 calls)
     s_psi        :     11.76s CPU     11.85s WALL (     207 calls)
     g_psi        :      0.14s CPU      0.14s WALL (     161 calls)
     cdiaghg      :    135.96s CPU    138.80s WALL (     203 calls)

     Called by h_psi:
     h_psi:calbec :     15.52s CPU     15.95s WALL (     207 calls)
     vloc_psi     :     91.64s CPU     93.76s WALL (     207 calls)
     add_vuspsi   :     11.88s CPU     12.15s WALL (     207 calls)

     General routines
     calbec       :     23.32s CPU     23.96s WALL (     259 calls)
     fft          :      1.69s CPU      1.73s WALL (     296 calls)
     ffts         :      0.14s CPU      0.14s WALL (      44 calls)
     fftw         :    109.81s CPU    112.37s WALL (  197662 calls)
     interpolate  :      0.13s CPU      0.13s WALL (      22 calls)
 
     Parallel routines
     fft_scatt_xy :      3.11s CPU      3.18s WALL (  198002 calls)
     fft_scatt_yz :     97.14s CPU     99.47s WALL (  198002 calls)
 
     PWSCF        :   6m 5.09s CPU   7m15.96s WALL

 
   This run was terminated on:  11:57:15  23Jul2020            

=------------------------------------------------------------------------------=
   JOB DONE.
=------------------------------------------------------------------------------=
