
     Program PWSCF v.6.5 starts on 24Jul2020 at 15: 5:17 

     This program is part of the open-source Quantum ESPRESSO suite
     for quantum simulation of materials; please cite
         "P. Giannozzi et al., J. Phys.:Condens. Matter 21 395502 (2009);
         "P. Giannozzi et al., J. Phys.:Condens. Matter 29 465901 (2017);
          URL http://www.quantum-espresso.org", 
     in publications or presentations arising from this work. More details at
     http://www.quantum-espresso.org/quote

     Parallel version (MPI & OpenMP), running on      36 processor cores
     Number of MPI processes:                36
     Threads/MPI process:                     1

     MPI processes distributed on     1 nodes
     R & G space division:  proc/nbgrp/npool/nimage =      36
     Reading input from ausurf.in

     Current dimensions of program PWSCF are:
     Max number of different atomic species (ntypx) = 10
     Max number of k-points (npk) =  40000
     Max angular momentum in pseudopotentials (lmaxx) =  3

     Subspace diagonalization in iterative solution of the eigenvalue problem:
     one sub-group per band group will be used
     scalapack distributed-memory algorithm (size of sub-group:  6*  6 procs)

 
     Parallelization info
     --------------------
     sticks:   dense  smooth     PW     G-vecs:    dense   smooth      PW
     Min         328     164     42                59950    21202    2796
     Max         329     165     43                59957    21207    2805
     Sum       11837    5915   1537              2158381   763307  100747
 

     Title: 
      DEISA pw benchmark                                                        


     bravais-lattice index     =            8
     lattice parameter (alat)  =      38.7583  a.u.
     unit-cell volume          =   45191.4962 (a.u.)^3
     number of atoms/cell      =          112
     number of atomic types    =            1
     number of electrons       =      1232.00
     number of Kohn-Sham states=          800
     kinetic-energy cutoff     =      25.0000  Ry
     charge density cutoff     =     200.0000  Ry
     convergence threshold     =      1.0E-06
     mixing beta               =       0.7000
     number of iterations used =            8  plain     mixing
     Exchange-correlation=  SLA  PW   PBE  PBE
                           (   1   4   3   4   0   0   0)

     celldm(1)=  38.758300  celldm(2)=   0.494393  celldm(3)=   1.569966
     celldm(4)=   0.000000  celldm(5)=   0.000000  celldm(6)=   0.000000

     crystal axes: (cart. coord. in units of alat)
               a(1) = (   1.000000   0.000000   0.000000 )  
               a(2) = (   0.000000   0.494393   0.000000 )  
               a(3) = (   0.000000   0.000000   1.569966 )  

     reciprocal axes: (cart. coord. in units 2 pi/alat)
               b(1) = (  1.000000  0.000000  0.000000 )  
               b(2) = (  0.000000  2.022682  0.000000 )  
               b(3) = (  0.000000  0.000000  0.636956 )  


     PseudoPot. # 1 for Au read from file:
     ./Au.pbe-nd-van.UPF
     MD5 check sum: deb5c07af10777505a79e28f5b4b4115
     Pseudo is Ultrasoft + core correction, Zval = 11.0
     Generated by new atomic code, or converted to UPF format
     Using radial grid of  985 points,  3 beta functions with: 
                l(1) =   1
                l(2) =   2
                l(3) =   2
     Q(r) pseudized with  8 coefficients,  rinner =    1.100   1.100   1.100
                                                       1.100   1.100

     atomic species   valence    mass     pseudopotential
        AU            11.00   196.96000     Au( 1.00)

     No symmetry found



   Cartesian axes

     site n.     atom                  positions (alat units)
         1           AU  tau(   1) = (   1.4278395   1.9784974   0.3497317  )
         2           AU  tau(   2) = (   1.4278395   1.7313987   0.3497317  )
         3           AU  tau(   3) = (   1.5706478   1.9784974   0.3497317  )
         4           AU  tau(   4) = (   1.5706478   1.7313987   0.3497317  )
         5           AU  tau(   5) = (   1.7134072   1.9784974   0.3497317  )
         6           AU  tau(   6) = (   1.7134072   1.7313987   0.3497317  )
         7           AU  tau(   7) = (   1.8562156   1.9784974   0.3497317  )
         8           AU  tau(   8) = (   1.8562156   1.7313987   0.3497317  )
         9           AU  tau(   9) = (   1.9989753   1.9784974   0.3497317  )
        10           AU  tau(  10) = (   1.9989753   1.7313987   0.3497317  )
        11           AU  tau(  11) = (   2.1417836   1.9784974   0.3497317  )
        12           AU  tau(  12) = (   2.1417836   1.7313987   0.3497317  )
        13           AU  tau(  13) = (   2.2845431   1.9784974   0.3497317  )
        14           AU  tau(  14) = (   2.2845431   1.7313987   0.3497317  )
        15           AU  tau(  15) = (   1.4278395   2.0609450   0.2331545  )
        16           AU  tau(  16) = (   1.4278395   1.8138461   0.2331545  )
        17           AU  tau(  17) = (   1.5706478   2.0609450   0.2331545  )
        18           AU  tau(  18) = (   1.5706478   1.8138461   0.2331545  )
        19           AU  tau(  19) = (   1.7134072   2.0609450   0.2331545  )
        20           AU  tau(  20) = (   1.7134072   1.8138461   0.2331545  )
        21           AU  tau(  21) = (   1.8562156   2.0609450   0.2331545  )
        22           AU  tau(  22) = (   1.8562156   1.8138461   0.2331545  )
        23           AU  tau(  23) = (   1.9989753   2.0609450   0.2331545  )
        24           AU  tau(  24) = (   1.9989753   1.8138461   0.2331545  )
        25           AU  tau(  25) = (   2.1417836   2.0609450   0.2331545  )
        26           AU  tau(  26) = (   2.1417836   1.8138461   0.2331545  )
        27           AU  tau(  27) = (   2.2845431   2.0609450   0.2331545  )
        28           AU  tau(  28) = (   2.2845431   1.8138461   0.2331545  )
        29           AU  tau(  29) = (   1.4992193   2.1021445   0.3497317  )
        30           AU  tau(  30) = (   1.4992193   1.8550456   0.3497317  )
        31           AU  tau(  31) = (   1.6420276   2.1021445   0.3497317  )
        32           AU  tau(  32) = (   1.6420276   1.8550456   0.3497317  )
        33           AU  tau(  33) = (   1.7847871   2.1021445   0.3497317  )
        34           AU  tau(  34) = (   1.7847871   1.8550456   0.3497317  )
        35           AU  tau(  35) = (   1.9275954   2.1021445   0.3497317  )
        36           AU  tau(  36) = (   1.9275954   1.8550456   0.3497317  )
        37           AU  tau(  37) = (   2.0704038   2.1021445   0.3497317  )
        38           AU  tau(  38) = (   2.0704038   1.8550456   0.3497317  )
        39           AU  tau(  39) = (   2.2131632   2.1021445   0.3497317  )
        40           AU  tau(  40) = (   2.2131632   1.8550456   0.3497317  )
        41           AU  tau(  41) = (   2.3559716   2.1021445   0.3497317  )
        42           AU  tau(  42) = (   2.3559716   1.8550456   0.3497317  )
        43           AU  tau(  43) = (   1.4992193   1.6901992   0.2331545  )
        44           AU  tau(  44) = (   1.4992193   1.9374930   0.2331545  )
        45           AU  tau(  45) = (   1.6420276   1.6901992   0.2331545  )
        46           AU  tau(  46) = (   1.6420276   1.9374930   0.2331545  )
        47           AU  tau(  47) = (   1.7847871   1.6901992   0.2331545  )
        48           AU  tau(  48) = (   1.7847871   1.9374930   0.2331545  )
        49           AU  tau(  49) = (   1.9275954   1.6901992   0.2331545  )
        50           AU  tau(  50) = (   1.9275954   1.9374930   0.2331545  )
        51           AU  tau(  51) = (   2.0704038   1.6901992   0.2331545  )
        52           AU  tau(  52) = (   2.0704038   1.9374930   0.2331545  )
        53           AU  tau(  53) = (   2.2131632   1.6901992   0.2331545  )
        54           AU  tau(  54) = (   2.2131632   1.9374930   0.2331545  )
        55           AU  tau(  55) = (   2.3559716   1.6901992   0.2331545  )
        56           AU  tau(  56) = (   2.3559716   1.9374930   0.2331545  )
        57           AU  tau(  57) = (   1.4278395   1.9784974   0.0000000  )
        58           AU  tau(  58) = (   1.4278395   1.7313987   0.0000000  )
        59           AU  tau(  59) = (   1.5706478   1.9784974   0.0000000  )
        60           AU  tau(  60) = (   1.5706478   1.7313987   0.0000000  )
        61           AU  tau(  61) = (   1.7134072   1.9784974   0.0000000  )
        62           AU  tau(  62) = (   1.7134072   1.7313987   0.0000000  )
        63           AU  tau(  63) = (   1.8562156   1.9784974   0.0000000  )
        64           AU  tau(  64) = (   1.8562156   1.7313987   0.0000000  )
        65           AU  tau(  65) = (   1.9989753   1.9784974   0.0000000  )
        66           AU  tau(  66) = (   1.9989753   1.7313987   0.0000000  )
        67           AU  tau(  67) = (   2.1417836   1.9784974   0.0000000  )
        68           AU  tau(  68) = (   2.1417836   1.7313987   0.0000000  )
        69           AU  tau(  69) = (   2.2845431   1.9784974   0.0000000  )
        70           AU  tau(  70) = (   2.2845431   1.7313987   0.0000000  )
        71           AU  tau(  71) = (   1.4992193   2.0196968   0.1165772  )
        72           AU  tau(  72) = (   1.4992193   1.7725979   0.1165772  )
        73           AU  tau(  73) = (   1.6420276   2.0196968   0.1165772  )
        74           AU  tau(  74) = (   1.6420276   1.7725979   0.1165772  )
        75           AU  tau(  75) = (   1.7847871   2.0196968   0.1165772  )
        76           AU  tau(  76) = (   1.7847871   1.7725979   0.1165772  )
        77           AU  tau(  77) = (   1.9275954   2.0196968   0.1165772  )
        78           AU  tau(  78) = (   1.9275954   1.7725979   0.1165772  )
        79           AU  tau(  79) = (   2.0704038   2.0196968   0.1165772  )
        80           AU  tau(  80) = (   2.0704038   1.7725979   0.1165772  )
        81           AU  tau(  81) = (   2.2131632   2.0196968   0.1165772  )
        82           AU  tau(  82) = (   2.2131632   1.7725979   0.1165772  )
        83           AU  tau(  83) = (   2.3559716   2.0196968   0.1165772  )
        84           AU  tau(  84) = (   2.3559716   1.7725979   0.1165772  )
        85           AU  tau(  85) = (   1.4278395   2.1433437   0.1165772  )
        86           AU  tau(  86) = (   1.4278395   1.8962938   0.1165772  )
        87           AU  tau(  87) = (   1.5706478   2.1433437   0.1165772  )
        88           AU  tau(  88) = (   1.5706478   1.8962938   0.1165772  )
        89           AU  tau(  89) = (   1.7134072   2.1433437   0.1165772  )
        90           AU  tau(  90) = (   1.7134072   1.8962938   0.1165772  )
        91           AU  tau(  91) = (   1.8562156   2.1433437   0.1165772  )
        92           AU  tau(  92) = (   1.8562156   1.8962938   0.1165772  )
        93           AU  tau(  93) = (   1.9989753   2.1433437   0.1165772  )
        94           AU  tau(  94) = (   1.9989753   1.8962938   0.1165772  )
        95           AU  tau(  95) = (   2.1417836   2.1433437   0.1165772  )
        96           AU  tau(  96) = (   2.1417836   1.8962938   0.1165772  )
        97           AU  tau(  97) = (   2.2845431   2.1433437   0.1165772  )
        98           AU  tau(  98) = (   2.2845431   1.8962938   0.1165772  )
        99           AU  tau(  99) = (   1.4992193   2.1021445   0.0000000  )
       100           AU  tau( 100) = (   1.4992193   1.8550456   0.0000000  )
       101           AU  tau( 101) = (   1.6420276   2.1021445   0.0000000  )
       102           AU  tau( 102) = (   1.6420276   1.8550456   0.0000000  )
       103           AU  tau( 103) = (   1.7847871   2.1021445   0.0000000  )
       104           AU  tau( 104) = (   1.7847871   1.8550456   0.0000000  )
       105           AU  tau( 105) = (   1.9275954   2.1021445   0.0000000  )
       106           AU  tau( 106) = (   1.9275954   1.8550456   0.0000000  )
       107           AU  tau( 107) = (   2.0704038   2.1021445   0.0000000  )
       108           AU  tau( 108) = (   2.0704038   1.8550456   0.0000000  )
       109           AU  tau( 109) = (   2.2131632   2.1021445   0.0000000  )
       110           AU  tau( 110) = (   2.2131632   1.8550456   0.0000000  )
       111           AU  tau( 111) = (   2.3559716   2.1021445   0.0000000  )
       112           AU  tau( 112) = (   2.3559716   1.8550456   0.0000000  )

     number of k points=     2  Marzari-Vanderbilt smearing, width (Ry)=  0.0500
                       cart. coord. in units 2pi/alat
        k(    1) = (   0.2500000   0.5056706   0.0000000), wk =   1.0000000
        k(    2) = (  -0.2500000   0.5056706   0.0000000), wk =   1.0000000

     Dense  grid:  2158381 G-vectors     FFT dimensions: ( 180,  90, 288)

     Smooth grid:   763307 G-vectors     FFT dimensions: ( 125,  64, 200)

     Estimated max dynamical RAM per process >     610.21 MB

     Estimated total dynamical RAM >      21.45 GB

     Initial potential from superposition of free atoms

     starting charge 1230.69946, renormalised to 1232.00000

     negative rho (up, down):  3.043E+00 0.000E+00
     Starting wfcs are 1008 randomized atomic wfcs

     total cpu time spent up to now is       16.6 secs

     Self-consistent Calculation

     iteration #  1     ecut=    25.00 Ry     beta= 0.70
     Davidson diagonalization with overlap
     ethr =  1.00E-02,  avg # of iterations =  6.5

     Threshold (ethr) on eigenvalues was too large:
     Diagonalizing with lowered threshold

     Davidson diagonalization with overlap
     ethr =  4.47E-04,  avg # of iterations =  4.5

     negative rho (up, down):  2.992E+00 0.000E+00

     total cpu time spent up to now is       98.8 secs

     total energy              =  -11423.49689364 Ry
     Harris-Foulkes estimate   =  -11428.44884274 Ry
     estimated scf accuracy    <       6.31712577 Ry

     iteration #  2     ecut=    25.00 Ry     beta= 0.70
     Davidson diagonalization with overlap
     ethr =  5.13E-04,  avg # of iterations = 10.5

     negative rho (up, down):  2.994E+00 0.000E+00

     total cpu time spent up to now is      205.0 secs

     total energy              =  -11408.22358820 Ry
     Harris-Foulkes estimate   =  -11440.28671355 Ry
     estimated scf accuracy    <     197.27725448 Ry

     iteration #  3     ecut=    25.00 Ry     beta= 0.70
     Davidson diagonalization with overlap
     ethr =  5.13E-04,  avg # of iterations =  6.0

     negative rho (up, down):  3.039E+00 0.000E+00

     total cpu time spent up to now is      283.5 secs

     total energy              =  -11426.39705810 Ry
     Harris-Foulkes estimate   =  -11427.97901551 Ry
     estimated scf accuracy    <       5.27749631 Ry

     iteration #  4     ecut=    25.00 Ry     beta= 0.70
     Davidson diagonalization with overlap
     ethr =  4.28E-04,  avg # of iterations =  3.0

     negative rho (up, down):  3.046E+00 0.000E+00

     total cpu time spent up to now is      316.2 secs

     total energy              =  -11426.61745995 Ry
     Harris-Foulkes estimate   =  -11427.35354477 Ry
     estimated scf accuracy    <       4.36810172 Ry

     iteration #  5     ecut=    25.00 Ry     beta= 0.70
     Davidson diagonalization with overlap
     ethr =  3.55E-04,  avg # of iterations =  4.0

     negative rho (up, down):  3.061E+00 0.000E+00

     total cpu time spent up to now is      350.3 secs

     total energy              =  -11426.87042472 Ry
     Harris-Foulkes estimate   =  -11427.36083770 Ry
     estimated scf accuracy    <       4.78554493 Ry

     iteration #  6     ecut=    25.00 Ry     beta= 0.70
     Davidson diagonalization with overlap
     ethr =  3.55E-04,  avg # of iterations =  1.0

     negative rho (up, down):  3.070E+00 0.000E+00

     total cpu time spent up to now is      379.3 secs

     total energy              =  -11427.08112052 Ry
     Harris-Foulkes estimate   =  -11427.10059705 Ry
     estimated scf accuracy    <       0.08443184 Ry

     iteration #  7     ecut=    25.00 Ry     beta= 0.70
     Davidson diagonalization with overlap
     ethr =  6.85E-06,  avg # of iterations = 12.0

     negative rho (up, down):  3.080E+00 0.000E+00

     total cpu time spent up to now is      454.0 secs

     total energy              =  -11427.07365149 Ry
     Harris-Foulkes estimate   =  -11427.11657323 Ry
     estimated scf accuracy    <       0.20327694 Ry

     iteration #  8     ecut=    25.00 Ry     beta= 0.70
     Davidson diagonalization with overlap
     ethr =  6.85E-06,  avg # of iterations =  8.0

     negative rho (up, down):  3.081E+00 0.000E+00

     total cpu time spent up to now is      499.4 secs

     total energy              =  -11427.09308838 Ry
     Harris-Foulkes estimate   =  -11427.09457523 Ry
     estimated scf accuracy    <       0.00486467 Ry

     iteration #  9     ecut=    25.00 Ry     beta= 0.70
     Davidson diagonalization with overlap
     ethr =  3.95E-07,  avg # of iterations =  5.0

     negative rho (up, down):  3.083E+00 0.000E+00

     total cpu time spent up to now is      541.9 secs

     total energy              =  -11427.09345006 Ry
     Harris-Foulkes estimate   =  -11427.09462435 Ry
     estimated scf accuracy    <       0.00495316 Ry

     iteration # 10     ecut=    25.00 Ry     beta= 0.70
     Davidson diagonalization with overlap
     ethr =  3.95E-07,  avg # of iterations =  2.0

     negative rho (up, down):  3.083E+00 0.000E+00

     total cpu time spent up to now is      572.3 secs

     total energy              =  -11427.09359236 Ry
     Harris-Foulkes estimate   =  -11427.09427964 Ry
     estimated scf accuracy    <       0.00526476 Ry

     iteration # 11     ecut=    25.00 Ry     beta= 0.70
     Davidson diagonalization with overlap
     ethr =  3.95E-07,  avg # of iterations =  1.0

     negative rho (up, down):  3.083E+00 0.000E+00

     total cpu time spent up to now is      601.4 secs

     total energy              =  -11427.09385614 Ry
     Harris-Foulkes estimate   =  -11427.09413833 Ry
     estimated scf accuracy    <       0.00216130 Ry

     iteration # 12     ecut=    25.00 Ry     beta= 0.70
     Davidson diagonalization with overlap
     ethr =  1.75E-07,  avg # of iterations =  1.0

     negative rho (up, down):  3.084E+00 0.000E+00

     total cpu time spent up to now is      630.4 secs

     total energy              =  -11427.09389147 Ry
     Harris-Foulkes estimate   =  -11427.09411697 Ry
     estimated scf accuracy    <       0.00136489 Ry

     iteration # 13     ecut=    25.00 Ry     beta= 0.70
     Davidson diagonalization with overlap
     ethr =  1.11E-07,  avg # of iterations =  1.0

     negative rho (up, down):  3.084E+00 0.000E+00

     total cpu time spent up to now is      659.5 secs

     total energy              =  -11427.09392749 Ry
     Harris-Foulkes estimate   =  -11427.09407397 Ry
     estimated scf accuracy    <       0.00112031 Ry

     iteration # 14     ecut=    25.00 Ry     beta= 0.70
     Davidson diagonalization with overlap
     ethr =  9.09E-08,  avg # of iterations =  1.0

     negative rho (up, down):  3.084E+00 0.000E+00

     total cpu time spent up to now is      688.6 secs

     total energy              =  -11427.09394314 Ry
     Harris-Foulkes estimate   =  -11427.09409343 Ry
     estimated scf accuracy    <       0.00135404 Ry

     iteration # 15     ecut=    25.00 Ry     beta= 0.70
     Davidson diagonalization with overlap
     ethr =  9.09E-08,  avg # of iterations =  1.0

     negative rho (up, down):  3.084E+00 0.000E+00

     total cpu time spent up to now is      717.6 secs

     total energy              =  -11427.09400614 Ry
     Harris-Foulkes estimate   =  -11427.09402972 Ry
     estimated scf accuracy    <       0.00012658 Ry

     iteration # 16     ecut=    25.00 Ry     beta= 0.70
     Davidson diagonalization with overlap
     ethr =  1.03E-08,  avg # of iterations =  1.0

     negative rho (up, down):  3.085E+00 0.000E+00

     total cpu time spent up to now is      746.7 secs

     total energy              =  -11427.09401134 Ry
     Harris-Foulkes estimate   =  -11427.09403143 Ry
     estimated scf accuracy    <       0.00019639 Ry

     iteration # 17     ecut=    25.00 Ry     beta= 0.70
     Davidson diagonalization with overlap
     ethr =  1.03E-08,  avg # of iterations =  1.0

     negative rho (up, down):  3.085E+00 0.000E+00

     total cpu time spent up to now is      775.7 secs

     total energy              =  -11427.09401972 Ry
     Harris-Foulkes estimate   =  -11427.09402302 Ry
     estimated scf accuracy    <       0.00001172 Ry

     iteration # 18     ecut=    25.00 Ry     beta= 0.70
     Davidson diagonalization with overlap
     ethr =  9.51E-10,  avg # of iterations =  2.0

     negative rho (up, down):  3.085E+00 0.000E+00

     total cpu time spent up to now is      806.7 secs

     total energy              =  -11427.09402092 Ry
     Harris-Foulkes estimate   =  -11427.09402261 Ry
     estimated scf accuracy    <       0.00000685 Ry

     iteration # 19     ecut=    25.00 Ry     beta= 0.70
     Davidson diagonalization with overlap
     ethr =  5.56E-10,  avg # of iterations =  2.0

     negative rho (up, down):  3.085E+00 0.000E+00

     total cpu time spent up to now is      837.4 secs

     total energy              =  -11427.09402153 Ry
     Harris-Foulkes estimate   =  -11427.09402190 Ry
     estimated scf accuracy    <       0.00000108 Ry

     iteration # 20     ecut=    25.00 Ry     beta= 0.70
     Davidson diagonalization with overlap
     ethr =  8.73E-11,  avg # of iterations =  2.0

     negative rho (up, down):  3.085E+00 0.000E+00

     total cpu time spent up to now is      869.6 secs

     total energy              =  -11427.09402159 Ry
     Harris-Foulkes estimate   =  -11427.09402185 Ry
     estimated scf accuracy    <       0.00000134 Ry

     iteration # 21     ecut=    25.00 Ry     beta= 0.70
     Davidson diagonalization with overlap
     ethr =  8.73E-11,  avg # of iterations =  1.0

     negative rho (up, down):  3.085E+00 0.000E+00

     total cpu time spent up to now is      898.7 secs

     total energy              =  -11427.09402159 Ry
     Harris-Foulkes estimate   =  -11427.09402187 Ry
     estimated scf accuracy    <       0.00000261 Ry

     iteration # 22     ecut=    25.00 Ry     beta= 0.70
     Davidson diagonalization with overlap
     ethr =  8.73E-11,  avg # of iterations =  1.0

     negative rho (up, down):  3.085E+00 0.000E+00

     total cpu time spent up to now is      927.7 secs

     End of self-consistent calculation

          k = 0.2500 0.5057 0.0000 ( 95386 PWs)   bands (ev):

    -8.0048  -7.7854  -7.3694  -7.1564  -6.9588  -6.8864  -6.8074  -6.6746
    -6.6108  -6.2900  -6.2193  -6.1890  -6.1050  -6.0373  -5.9302  -5.9279
    -5.8887  -5.8390  -5.8309  -5.8249  -5.7939  -5.7360  -5.7239  -5.6814
    -5.6674  -5.6495  -5.6453  -5.6401  -5.5498  -5.5384  -5.5309  -5.5226
    -5.5164  -5.5072  -5.4892  -5.4812  -5.4629  -5.4594  -5.4282  -5.3751
    -5.3690  -5.3537  -5.3515  -5.3170  -5.3098  -5.2938  -5.2912  -5.2336
    -5.2326  -5.2326  -5.2282  -5.2183  -5.1997  -5.1786  -5.1553  -5.1446
    -5.1298  -5.1244  -5.1156  -5.1141  -5.1105  -5.1092  -5.0880  -5.0675
    -5.0647  -5.0570  -5.0559  -5.0488  -5.0407  -5.0376  -5.0304  -4.9877
    -4.9820  -4.9669  -4.9637  -4.9481  -4.9342  -4.9323  -4.9288  -4.9268
    -4.9176  -4.9159  -4.9068  -4.9039  -4.8857  -4.8853  -4.8817  -4.8718
    -4.8718  -4.8621  -4.8595  -4.8487  -4.8280  -4.8269  -4.8247  -4.8220
    -4.7418  -4.7392  -4.7376  -4.7367  -4.7328  -4.7254  -4.7210  -4.7208
    -4.7201  -4.7119  -4.6994  -4.6847  -4.6742  -4.6165  -4.6000  -4.5970
    -4.5933  -4.5849  -4.5623  -4.5610  -4.5573  -4.5267  -4.4705  -4.4694
    -4.4508  -4.4137  -4.3979  -4.3951  -4.3934  -4.3931  -4.3916  -4.3853
    -4.3553  -4.3456  -4.3450  -4.3370  -4.3255  -4.3229  -4.3201  -4.3035
    -4.3020  -4.2738  -4.2644  -4.2573  -4.2476  -4.2451  -4.2293  -4.2105
    -4.1937  -4.1678  -4.1561  -4.1550  -4.1545  -4.1530  -4.1482  -4.1394
    -4.1372  -4.1044  -4.0971  -4.0834  -4.0773  -4.0761  -4.0698  -4.0543
    -4.0505  -4.0352  -4.0306  -4.0239  -4.0212  -4.0171  -4.0084  -3.9938
    -3.9867  -3.9706  -3.9585  -3.9274  -3.9139  -3.8985  -3.8930  -3.8895
    -3.8709  -3.8706  -3.8610  -3.8373  -3.8365  -3.8329  -3.8164  -3.8083
    -3.7859  -3.7800  -3.7391  -3.7357  -3.7264  -3.7240  -3.7148  -3.7101
    -3.7008  -3.6852  -3.6806  -3.6711  -3.6588  -3.6404  -3.6191  -3.6191
    -3.6172  -3.6161  -3.6055  -3.6017  -3.5990  -3.5951  -3.5916  -3.5796
    -3.5697  -3.5669  -3.5644  -3.5594  -3.5574  -3.5508  -3.5457  -3.5447
    -3.5434  -3.5341  -3.5235  -3.4922  -3.4822  -3.4562  -3.4539  -3.4428
    -3.4424  -3.4404  -3.4391  -3.4260  -3.4213  -3.4126  -3.4050  -3.3969
    -3.3878  -3.3796  -3.3739  -3.3719  -3.3702  -3.3694  -3.3642  -3.3562
    -3.3524  -3.3373  -3.3355  -3.3268  -3.3260  -3.3243  -3.3198  -3.3170
    -3.3133  -3.3128  -3.3090  -3.3085  -3.2996  -3.2968  -3.2918  -3.2860
    -3.2813  -3.2794  -3.2590  -3.2497  -3.2467  -3.2437  -3.2380  -3.2287
    -3.2196  -3.2188  -3.2141  -3.2101  -3.2020  -3.1997  -3.1889  -3.1804
    -3.1789  -3.1731  -3.1720  -3.1683  -3.1668  -3.1591  -3.1580  -3.1458
    -3.1456  -3.1215  -3.1211  -3.1105  -3.0982  -3.0905  -3.0843  -3.0579
    -3.0412  -3.0399  -3.0344  -3.0332  -3.0261  -3.0238  -3.0230  -3.0180
    -3.0172  -3.0162  -3.0154  -3.0090  -3.0023  -3.0014  -2.9892  -2.9848
    -2.9817  -2.9807  -2.9800  -2.9749  -2.9748  -2.9710  -2.9686  -2.9508
    -2.9150  -2.9130  -2.8900  -2.8758  -2.8741  -2.8623  -2.8596  -2.8492
    -2.8475  -2.8279  -2.8219  -2.8204  -2.7996  -2.7961  -2.7955  -2.7830
    -2.7796  -2.7753  -2.7673  -2.7640  -2.7501  -2.7491  -2.7467  -2.7420
    -2.7232  -2.7224  -2.7205  -2.7179  -2.6628  -2.6542  -2.6461  -2.6366
    -2.6295  -2.6260  -2.6214  -2.5955  -2.5800  -2.5697  -2.5673  -2.5668
    -2.5634  -2.5590  -2.5530  -2.5407  -2.5280  -2.5251  -2.5194  -2.5160
    -2.5089  -2.5071  -2.5010  -2.4928  -2.4898  -2.4862  -2.4804  -2.4791
    -2.4731  -2.4723  -2.4664  -2.4656  -2.4597  -2.4490  -2.4352  -2.4346
    -2.4064  -2.4000  -2.3982  -2.3742  -2.3702  -2.3631  -2.3558  -2.3557
    -2.3486  -2.3452  -2.3355  -2.3323  -2.3152  -2.3002  -2.2927  -2.2718
    -2.2684  -2.2666  -2.2636  -2.2487  -2.2432  -2.2335  -2.2316  -2.2150
    -2.2125  -2.2054  -2.2052  -2.1978  -2.1970  -2.1782  -2.1448  -2.1360
    -2.1303  -2.1057  -2.1023  -2.0847  -2.0674  -2.0484  -2.0474  -2.0441
    -2.0373  -2.0318  -2.0022  -1.9982  -1.9947  -1.9640  -1.9606  -1.9572
    -1.9560  -1.9518  -1.9480  -1.9452  -1.9392  -1.9387  -1.9369  -1.9308
    -1.9299  -1.9275  -1.9170  -1.9121  -1.9077  -1.9019  -1.8646  -1.8556
    -1.8549  -1.8385  -1.8309  -1.8272  -1.8231  -1.8170  -1.8160  -1.8135
    -1.8114  -1.8014  -1.8001  -1.7989  -1.7933  -1.7664  -1.7595  -1.7585
    -1.7574  -1.7482  -1.7431  -1.7424  -1.7365  -1.7364  -1.7265  -1.7238
    -1.7062  -1.7046  -1.6988  -1.6979  -1.6880  -1.6744  -1.6701  -1.6657
    -1.6634  -1.6586  -1.6507  -1.6287  -1.6130  -1.6037  -1.5993  -1.5974
    -1.5791  -1.5759  -1.5754  -1.5739  -1.5601  -1.5447  -1.5043  -1.4991
    -1.4926  -1.4880  -1.4799  -1.4791  -1.4706  -1.4672  -1.4598  -1.4580
    -1.4510  -1.4443  -1.4336  -1.4324  -1.4261  -1.4132  -1.4126  -1.4073
    -1.3996  -1.3816  -1.3717  -1.3684  -1.3629  -1.3579  -1.3453  -1.3395
    -1.3277  -1.3255  -1.3218  -1.3073  -1.3025  -1.2977  -1.2932  -1.2872
    -1.2871  -1.2778  -1.2765  -1.2670  -1.2645  -1.2553  -1.2536  -1.2496
    -1.2416  -1.2396  -1.2279  -1.2275  -1.2199  -1.2192  -1.2191  -1.2188
    -1.2153  -1.2087  -1.2059  -1.1779  -1.1766  -1.1706  -1.1565  -1.1553
    -1.1449  -1.1401  -1.1378  -1.1335  -1.1300  -1.1250  -1.1244  -1.1217
    -1.1188  -1.1075  -1.1059  -1.0984  -1.0873  -1.0828  -1.0799  -1.0780
    -1.0771  -1.0757  -1.0724  -1.0628  -1.0579  -1.0549  -1.0536  -1.0508
    -1.0501  -1.0441  -1.0044  -0.9810  -0.9697  -0.9649  -0.9522  -0.9372
    -0.9359  -0.9293  -0.9245  -0.9207  -0.9160  -0.9077  -0.9002  -0.8819
    -0.8780  -0.8614  -0.8299  -0.8280  -0.8259  -0.7658  -0.6680  -0.6316
    -0.6015  -0.5945  -0.5467  -0.4527  -0.3796  -0.1935  -0.1601  -0.1188
    -0.0035   0.0222   0.0573   0.1553   0.1621   0.1920   0.2706   0.2883
     0.3156   0.3347   0.5887   0.5922   0.6431   0.6719   0.7320   0.7783
     0.8027   0.8035   0.9241   0.9707   0.9832   1.1554   1.1640   1.1985
     1.3018   1.3263   1.3633   1.3876   1.4796   1.5213   1.5258   1.7955
     1.8682   1.8791   1.8973   1.9000   1.9101   1.9752   1.9822   2.0316
     2.0617   2.0734   2.1944   2.4011   2.4064   2.4084   2.4469   2.4515
     2.6432   2.6540   2.6776   2.7099   2.7216   2.7962   2.8417   3.1810
     3.2036   3.2179   3.2817   3.3296   3.3642   3.3779   3.5444   3.5476
     3.5700   3.6170   3.6260   3.7993   3.8064   3.8939   3.9031   4.0004
     4.0227   4.1243   4.1804   4.2440   4.2474   4.2705   4.3019   4.3974
     4.4721   4.4974   4.5211   4.5649   4.6631   4.8052   4.8115   4.8411
     4.8499   4.8524   4.8939   4.9670   4.9890   5.0741   5.0907   5.1945
     5.2015   5.2119   5.2381   5.2619   5.3014   5.4403   5.4932   5.5256
     5.5327   5.5331   5.5444   5.6499   5.6730   5.7196   5.7318   5.8368
     5.8523   5.8739   5.8958   5.9063   5.9064   5.9800   5.9913   6.0159
     6.0172   6.0266   6.0328   6.0423   6.0869   6.1382   6.1417   6.1477
     6.1657   6.2222   6.2291   6.3072   6.4016   6.4091   6.4469   6.4474
     6.4737   6.5149   6.5238   6.5725   6.5879   6.6323   6.6406   6.6541
     6.6608   6.6908   6.7354   6.7482   6.7688   6.8236   6.8288   6.9306
     6.9365   6.9722   6.9728   6.9987   7.0275   7.0636   7.1003   7.1088
     7.1285   7.1636   7.1907   7.1920   7.1999   7.2024   7.2796   7.2909
     7.3065   7.3547   7.3592   7.4026   7.4172   7.4340   7.4641   7.5087
     7.5609   7.5676   7.6063   7.6175   7.6581   7.6582   7.6665   7.6694
     7.6929   7.6939   7.7179   7.7229   7.7376   7.7421   7.7924   7.8310
     7.8580   7.8672   7.9401   7.9888   7.9963   8.0016   8.0250   8.0923

          k =-0.2500 0.5057 0.0000 ( 95386 PWs)   bands (ev):

    -8.0048  -7.7854  -7.3694  -7.1564  -6.9588  -6.8864  -6.8074  -6.6746
    -6.6108  -6.2900  -6.2193  -6.1890  -6.1050  -6.0373  -5.9302  -5.9279
    -5.8887  -5.8390  -5.8309  -5.8249  -5.7939  -5.7360  -5.7239  -5.6814
    -5.6674  -5.6495  -5.6453  -5.6401  -5.5498  -5.5384  -5.5309  -5.5226
    -5.5164  -5.5072  -5.4892  -5.4812  -5.4629  -5.4594  -5.4282  -5.3751
    -5.3690  -5.3537  -5.3515  -5.3170  -5.3099  -5.2938  -5.2912  -5.2336
    -5.2326  -5.2326  -5.2282  -5.2183  -5.1997  -5.1786  -5.1553  -5.1446
    -5.1298  -5.1244  -5.1156  -5.1141  -5.1105  -5.1091  -5.0880  -5.0675
    -5.0647  -5.0570  -5.0559  -5.0488  -5.0407  -5.0376  -5.0304  -4.9877
    -4.9820  -4.9669  -4.9637  -4.9481  -4.9342  -4.9323  -4.9288  -4.9268
    -4.9176  -4.9159  -4.9068  -4.9039  -4.8857  -4.8853  -4.8817  -4.8718
    -4.8718  -4.8621  -4.8595  -4.8487  -4.8280  -4.8269  -4.8247  -4.8220
    -4.7418  -4.7392  -4.7376  -4.7367  -4.7328  -4.7254  -4.7211  -4.7207
    -4.7202  -4.7119  -4.6994  -4.6847  -4.6742  -4.6165  -4.6000  -4.5970
    -4.5933  -4.5849  -4.5623  -4.5610  -4.5573  -4.5267  -4.4705  -4.4694
    -4.4508  -4.4137  -4.3979  -4.3951  -4.3934  -4.3931  -4.3916  -4.3853
    -4.3553  -4.3456  -4.3450  -4.3370  -4.3255  -4.3229  -4.3201  -4.3035
    -4.3020  -4.2738  -4.2644  -4.2573  -4.2476  -4.2451  -4.2293  -4.2105
    -4.1937  -4.1678  -4.1561  -4.1550  -4.1545  -4.1530  -4.1482  -4.1394
    -4.1372  -4.1044  -4.0971  -4.0834  -4.0773  -4.0761  -4.0698  -4.0543
    -4.0505  -4.0352  -4.0306  -4.0239  -4.0213  -4.0171  -4.0084  -3.9938
    -3.9867  -3.9706  -3.9585  -3.9274  -3.9139  -3.8985  -3.8930  -3.8895
    -3.8709  -3.8706  -3.8610  -3.8373  -3.8365  -3.8329  -3.8164  -3.8083
    -3.7859  -3.7800  -3.7391  -3.7357  -3.7264  -3.7240  -3.7148  -3.7101
    -3.7008  -3.6852  -3.6806  -3.6711  -3.6588  -3.6404  -3.6191  -3.6191
    -3.6172  -3.6161  -3.6055  -3.6017  -3.5990  -3.5951  -3.5916  -3.5796
    -3.5697  -3.5669  -3.5644  -3.5594  -3.5574  -3.5508  -3.5457  -3.5447
    -3.5434  -3.5341  -3.5235  -3.4922  -3.4822  -3.4562  -3.4539  -3.4428
    -3.4424  -3.4404  -3.4391  -3.4260  -3.4213  -3.4126  -3.4050  -3.3969
    -3.3878  -3.3796  -3.3739  -3.3719  -3.3702  -3.3694  -3.3642  -3.3562
    -3.3524  -3.3373  -3.3355  -3.3268  -3.3260  -3.3243  -3.3198  -3.3170
    -3.3133  -3.3128  -3.3090  -3.3085  -3.2996  -3.2969  -3.2918  -3.2860
    -3.2813  -3.2793  -3.2590  -3.2496  -3.2467  -3.2437  -3.2380  -3.2287
    -3.2196  -3.2188  -3.2141  -3.2101  -3.2021  -3.1997  -3.1889  -3.1804
    -3.1789  -3.1731  -3.1720  -3.1683  -3.1668  -3.1591  -3.1580  -3.1458
    -3.1456  -3.1215  -3.1211  -3.1105  -3.0982  -3.0905  -3.0843  -3.0579
    -3.0412  -3.0399  -3.0344  -3.0332  -3.0261  -3.0238  -3.0230  -3.0180
    -3.0172  -3.0162  -3.0155  -3.0090  -3.0023  -3.0014  -2.9893  -2.9848
    -2.9817  -2.9806  -2.9799  -2.9749  -2.9749  -2.9710  -2.9686  -2.9508
    -2.9150  -2.9130  -2.8900  -2.8757  -2.8741  -2.8623  -2.8596  -2.8492
    -2.8475  -2.8279  -2.8219  -2.8204  -2.7996  -2.7961  -2.7955  -2.7830
    -2.7796  -2.7753  -2.7673  -2.7640  -2.7501  -2.7491  -2.7467  -2.7420
    -2.7232  -2.7224  -2.7206  -2.7179  -2.6628  -2.6542  -2.6461  -2.6366
    -2.6295  -2.6260  -2.6214  -2.5955  -2.5800  -2.5697  -2.5673  -2.5668
    -2.5634  -2.5589  -2.5530  -2.5407  -2.5280  -2.5251  -2.5194  -2.5160
    -2.5089  -2.5071  -2.5011  -2.4928  -2.4898  -2.4862  -2.4804  -2.4791
    -2.4731  -2.4723  -2.4664  -2.4656  -2.4597  -2.4490  -2.4352  -2.4346
    -2.4064  -2.4000  -2.3982  -2.3742  -2.3702  -2.3631  -2.3558  -2.3557
    -2.3486  -2.3452  -2.3355  -2.3323  -2.3152  -2.3002  -2.2927  -2.2718
    -2.2684  -2.2666  -2.2636  -2.2487  -2.2432  -2.2335  -2.2316  -2.2150
    -2.2125  -2.2054  -2.2052  -2.1978  -2.1970  -2.1782  -2.1448  -2.1360
    -2.1303  -2.1057  -2.1023  -2.0847  -2.0674  -2.0484  -2.0474  -2.0441
    -2.0373  -2.0318  -2.0022  -1.9982  -1.9947  -1.9640  -1.9606  -1.9572
    -1.9560  -1.9518  -1.9480  -1.9452  -1.9392  -1.9387  -1.9369  -1.9308
    -1.9298  -1.9274  -1.9170  -1.9121  -1.9077  -1.9019  -1.8646  -1.8556
    -1.8549  -1.8385  -1.8309  -1.8272  -1.8231  -1.8170  -1.8160  -1.8135
    -1.8114  -1.8014  -1.8001  -1.7989  -1.7933  -1.7664  -1.7595  -1.7585
    -1.7574  -1.7482  -1.7431  -1.7424  -1.7365  -1.7364  -1.7265  -1.7238
    -1.7062  -1.7046  -1.6988  -1.6978  -1.6880  -1.6744  -1.6701  -1.6657
    -1.6634  -1.6586  -1.6507  -1.6287  -1.6130  -1.6037  -1.5993  -1.5974
    -1.5791  -1.5759  -1.5754  -1.5739  -1.5601  -1.5447  -1.5043  -1.4991
    -1.4926  -1.4880  -1.4799  -1.4790  -1.4706  -1.4672  -1.4598  -1.4580
    -1.4510  -1.4443  -1.4336  -1.4324  -1.4261  -1.4132  -1.4126  -1.4073
    -1.3996  -1.3816  -1.3717  -1.3684  -1.3629  -1.3579  -1.3453  -1.3395
    -1.3277  -1.3255  -1.3218  -1.3073  -1.3025  -1.2977  -1.2932  -1.2872
    -1.2871  -1.2778  -1.2765  -1.2670  -1.2645  -1.2553  -1.2536  -1.2496
    -1.2416  -1.2396  -1.2279  -1.2275  -1.2199  -1.2192  -1.2191  -1.2188
    -1.2153  -1.2087  -1.2059  -1.1779  -1.1766  -1.1706  -1.1565  -1.1553
    -1.1449  -1.1401  -1.1378  -1.1335  -1.1300  -1.1250  -1.1244  -1.1217
    -1.1188  -1.1075  -1.1059  -1.0984  -1.0873  -1.0828  -1.0799  -1.0780
    -1.0771  -1.0756  -1.0724  -1.0628  -1.0579  -1.0549  -1.0536  -1.0508
    -1.0501  -1.0441  -1.0044  -0.9810  -0.9697  -0.9649  -0.9522  -0.9373
    -0.9357  -0.9293  -0.9245  -0.9207  -0.9160  -0.9077  -0.9002  -0.8819
    -0.8780  -0.8614  -0.8299  -0.8280  -0.8260  -0.7658  -0.6680  -0.6316
    -0.6015  -0.5945  -0.5467  -0.4527  -0.3796  -0.1935  -0.1601  -0.1188
    -0.0035   0.0222   0.0573   0.1553   0.1621   0.1920   0.2706   0.2883
     0.3156   0.3347   0.5887   0.5922   0.6431   0.6719   0.7320   0.7783
     0.8027   0.8035   0.9241   0.9707   0.9832   1.1554   1.1640   1.1985
     1.3018   1.3263   1.3633   1.3876   1.4796   1.5213   1.5258   1.7955
     1.8682   1.8791   1.8972   1.9000   1.9101   1.9752   1.9821   2.0316
     2.0617   2.0734   2.1944   2.4011   2.4064   2.4084   2.4469   2.4515
     2.6432   2.6540   2.6776   2.7099   2.7216   2.7962   2.8417   3.1810
     3.2036   3.2179   3.2817   3.3296   3.3642   3.3779   3.5444   3.5476
     3.5700   3.6170   3.6260   3.7993   3.8064   3.8939   3.9031   4.0004
     4.0227   4.1243   4.1804   4.2440   4.2474   4.2705   4.3019   4.3974
     4.4721   4.4974   4.5211   4.5649   4.6631   4.8052   4.8115   4.8411
     4.8499   4.8524   4.8939   4.9670   4.9890   5.0741   5.0907   5.1945
     5.2015   5.2119   5.2381   5.2619   5.3014   5.4403   5.4932   5.5256
     5.5327   5.5331   5.5444   5.6499   5.6730   5.7196   5.7318   5.8368
     5.8523   5.8739   5.8958   5.9063   5.9064   5.9800   5.9913   6.0159
     6.0172   6.0266   6.0328   6.0423   6.0869   6.1382   6.1417   6.1477
     6.1657   6.2222   6.2291   6.3072   6.4016   6.4091   6.4469   6.4474
     6.4737   6.5149   6.5238   6.5725   6.5879   6.6323   6.6406   6.6541
     6.6608   6.6908   6.7354   6.7482   6.7688   6.8236   6.8288   6.9306
     6.9365   6.9722   6.9728   6.9987   7.0275   7.0636   7.1003   7.1088
     7.1285   7.1636   7.1907   7.1920   7.1999   7.2024   7.2796   7.2909
     7.3065   7.3547   7.3592   7.4026   7.4172   7.4340   7.4641   7.5087
     7.5609   7.5676   7.6063   7.6175   7.6581   7.6582   7.6665   7.6694
     7.6929   7.6939   7.7179   7.7229   7.7376   7.7421   7.7924   7.8310
     7.8580   7.8672   7.9401   7.9887   7.9963   8.0016   8.0250   8.0923

     the Fermi energy is     0.7845 ev

!    total energy              =  -11427.09402151 Ry
     Harris-Foulkes estimate   =  -11427.09402175 Ry
     estimated scf accuracy    <       0.00000023 Ry

     The total energy is the sum of the following terms:

     one-electron contribution = -129707.68441666 Ry
     hartree contribution      =   65677.86953078 Ry
     xc contribution           =   -5523.82453977 Ry
     ewald contribution        =   58126.48229571 Ry
     smearing contrib. (-TS)   =       0.06310842 Ry

     convergence has been achieved in  22 iterations

     negative rho (up, down):  3.085E+00 0.000E+00

     Forces acting on atoms (cartesian axes, Ry/au):

     atom    1 type  1   force =    -0.00097562    0.00015671    0.00832598
     atom    2 type  1   force =    -0.00096922   -0.00021156    0.00804474
     atom    3 type  1   force =    -0.00015605    0.00021883    0.00896818
     atom    4 type  1   force =    -0.00015402   -0.00015731    0.00868323
     atom    5 type  1   force =     0.00004515    0.00024900    0.00901906
     atom    6 type  1   force =     0.00004499   -0.00012783    0.00873353
     atom    7 type  1   force =    -0.00012032    0.00022944    0.00896683
     atom    8 type  1   force =    -0.00011909   -0.00014614    0.00868503
     atom    9 type  1   force =     0.00005271    0.00022717    0.00897759
     atom   10 type  1   force =     0.00005229   -0.00014611    0.00869313
     atom   11 type  1   force =    -0.00006552    0.00023986    0.00904394
     atom   12 type  1   force =    -0.00006521   -0.00013396    0.00875786
     atom   13 type  1   force =     0.00084767    0.00026227    0.00882001
     atom   14 type  1   force =     0.00084349   -0.00011077    0.00853360
     atom   15 type  1   force =    -0.00127284    0.00041162   -0.00531236
     atom   16 type  1   force =    -0.00126850   -0.00006740   -0.00541467
     atom   17 type  1   force =    -0.00017418    0.00038507   -0.00534544
     atom   18 type  1   force =    -0.00017283   -0.00010465   -0.00544896
     atom   19 type  1   force =     0.00008170    0.00039357   -0.00537479
     atom   20 type  1   force =     0.00007989   -0.00010190   -0.00547805
     atom   21 type  1   force =    -0.00014188    0.00039519   -0.00540615
     atom   22 type  1   force =    -0.00014122   -0.00009735   -0.00550880
     atom   23 type  1   force =     0.00006737    0.00039575   -0.00540583
     atom   24 type  1   force =     0.00006816   -0.00009682   -0.00550759
     atom   25 type  1   force =    -0.00012362    0.00039128   -0.00538347
     atom   26 type  1   force =    -0.00012323   -0.00010452   -0.00548636
     atom   27 type  1   force =     0.00106989    0.00039198   -0.00532392
     atom   28 type  1   force =     0.00106718   -0.00010317   -0.00542659
     atom   29 type  1   force =    -0.00058868   -0.00010382    0.00854306
     atom   30 type  1   force =    -0.00058984   -0.00050534    0.00859265
     atom   31 type  1   force =    -0.00006783   -0.00012100    0.00875921
     atom   32 type  1   force =    -0.00006777   -0.00052727    0.00881008
     atom   33 type  1   force =     0.00008894   -0.00013298    0.00870539
     atom   34 type  1   force =     0.00009040   -0.00053900    0.00875656
     atom   35 type  1   force =    -0.00005404   -0.00011986    0.00874570
     atom   36 type  1   force =    -0.00005300   -0.00052576    0.00879749
     atom   37 type  1   force =    -0.00011875   -0.00012576    0.00872239
     atom   38 type  1   force =    -0.00011949   -0.00053098    0.00877317
     atom   39 type  1   force =     0.00015337   -0.00013172    0.00877150
     atom   40 type  1   force =     0.00015270   -0.00053622    0.00882350
     atom   41 type  1   force =     0.00095392   -0.00021918    0.00803789
     atom   42 type  1   force =     0.00095715   -0.00061248    0.00808862
     atom   43 type  1   force =    -0.00075161   -0.00010755   -0.00534462
     atom   44 type  1   force =    -0.00075296   -0.00062275   -0.00531653
     atom   45 type  1   force =    -0.00005395   -0.00010886   -0.00539688
     atom   46 type  1   force =    -0.00005431   -0.00062668   -0.00536976
     atom   47 type  1   force =     0.00013660   -0.00010052   -0.00542992
     atom   48 type  1   force =     0.00013937   -0.00061645   -0.00540134
     atom   49 type  1   force =    -0.00005925   -0.00010276   -0.00544052
     atom   50 type  1   force =    -0.00005990   -0.00062238   -0.00541299
     atom   51 type  1   force =    -0.00015899   -0.00010069   -0.00543013
     atom   52 type  1   force =    -0.00016168   -0.00062071   -0.00539967
     atom   53 type  1   force =     0.00015871   -0.00011256   -0.00540082
     atom   54 type  1   force =     0.00015963   -0.00063427   -0.00536971
     atom   55 type  1   force =     0.00122140   -0.00007269   -0.00535807
     atom   56 type  1   force =     0.00122971   -0.00058136   -0.00532680
     atom   57 type  1   force =    -0.00098506    0.00069399   -0.00832786
     atom   58 type  1   force =    -0.00097953    0.00022939   -0.00800019
     atom   59 type  1   force =    -0.00011632    0.00064558   -0.00897313
     atom   60 type  1   force =    -0.00011550    0.00017512   -0.00864469
     atom   61 type  1   force =     0.00010196    0.00061613   -0.00903547
     atom   62 type  1   force =     0.00009991    0.00014530   -0.00870630
     atom   63 type  1   force =    -0.00008570    0.00063439   -0.00899714
     atom   64 type  1   force =    -0.00008531    0.00016370   -0.00867153
     atom   65 type  1   force =     0.00003941    0.00063608   -0.00901122
     atom   66 type  1   force =     0.00004030    0.00016393   -0.00868359
     atom   67 type  1   force =    -0.00012048    0.00062385   -0.00906790
     atom   68 type  1   force =    -0.00012059    0.00015126   -0.00873862
     atom   69 type  1   force =     0.00079472    0.00060078   -0.00883024
     atom   70 type  1   force =     0.00079031    0.00012876   -0.00850066
     atom   71 type  1   force =    -0.00074648    0.00076052    0.00522416
     atom   72 type  1   force =    -0.00074490    0.00022303    0.00539180
     atom   73 type  1   force =    -0.00003107    0.00076556    0.00523877
     atom   74 type  1   force =    -0.00003133    0.00022379    0.00540589
     atom   75 type  1   force =     0.00016063    0.00075323    0.00521523
     atom   76 type  1   force =     0.00015770    0.00021787    0.00538213
     atom   77 type  1   force =    -0.00005419    0.00076100    0.00518990
     atom   78 type  1   force =    -0.00005226    0.00022037    0.00535771
     atom   79 type  1   force =    -0.00017647    0.00075917    0.00518815
     atom   80 type  1   force =    -0.00017461    0.00021637    0.00535647
     atom   81 type  1   force =     0.00013359    0.00077339    0.00521502
     atom   82 type  1   force =     0.00013123    0.00022752    0.00538368
     atom   83 type  1   force =     0.00121256    0.00071870    0.00522582
     atom   84 type  1   force =     0.00120555    0.00018524    0.00539283
     atom   85 type  1   force =    -0.00127450    0.00004922    0.00538775
     atom   86 type  1   force =    -0.00127742   -0.00074582    0.00556881
     atom   87 type  1   force =    -0.00015673    0.00008765    0.00540704
     atom   88 type  1   force =    -0.00015722   -0.00072244    0.00558816
     atom   89 type  1   force =     0.00010474    0.00008206    0.00538138
     atom   90 type  1   force =     0.00010618   -0.00072812    0.00556211
     atom   91 type  1   force =    -0.00012849    0.00007532    0.00536347
     atom   92 type  1   force =    -0.00012885   -0.00073028    0.00554307
     atom   93 type  1   force =     0.00006527    0.00007754    0.00534795
     atom   94 type  1   force =     0.00006365   -0.00073302    0.00552878
     atom   95 type  1   force =    -0.00014755    0.00008774    0.00535775
     atom   96 type  1   force =    -0.00014835   -0.00072786    0.00553928
     atom   97 type  1   force =     0.00104355    0.00008465    0.00536407
     atom   98 type  1   force =     0.00104656   -0.00072700    0.00554429
     atom   99 type  1   force =    -0.00057134    0.00011697   -0.00848488
     atom  100 type  1   force =    -0.00057098   -0.00029124   -0.00854791
     atom  101 type  1   force =    -0.00001397    0.00014069   -0.00871320
     atom  102 type  1   force =    -0.00001326   -0.00026915   -0.00877612
     atom  103 type  1   force =     0.00013825    0.00014920   -0.00867052
     atom  104 type  1   force =     0.00013810   -0.00025812   -0.00873293
     atom  105 type  1   force =    -0.00004185    0.00013479   -0.00871894
     atom  106 type  1   force =    -0.00004220   -0.00027504   -0.00877988
     atom  107 type  1   force =    -0.00015307    0.00014512   -0.00869354
     atom  108 type  1   force =    -0.00015327   -0.00026704   -0.00875624
     atom  109 type  1   force =     0.00009014    0.00014993   -0.00873012
     atom  110 type  1   force =     0.00009015   -0.00026070   -0.00879305
     atom  111 type  1   force =     0.00091644    0.00023199   -0.00798091
     atom  112 type  1   force =     0.00092091   -0.00016767   -0.00804390

     Total force =     0.076785     Total SCF correction =     0.002893

     Writing output data file ./ausurf.save/
 
     init_run     :     15.17s CPU     16.11s WALL (       1 calls)
     electrons    :    888.59s CPU    911.27s WALL (       1 calls)
     forces       :      9.30s CPU      9.60s WALL (       1 calls)

     Called by init_run:
     wfcinit      :     12.70s CPU     13.31s WALL (       1 calls)
     potinit      :      0.46s CPU      0.51s WALL (       1 calls)
     hinit0       :      0.63s CPU      0.73s WALL (       1 calls)

     Called by electrons:
     c_bands      :    795.83s CPU    813.79s WALL (      23 calls)
     sum_band     :     79.90s CPU     82.38s WALL (      23 calls)
     v_of_rho     :      4.12s CPU      4.28s WALL (      23 calls)
     newd         :      7.83s CPU      9.78s WALL (      23 calls)
     mix_rho      :      0.90s CPU      0.94s WALL (      23 calls)

     Called by c_bands:
     init_us_2    :      4.35s CPU      4.40s WALL (      96 calls)
     cegterg      :    779.58s CPU    797.34s WALL (      46 calls)

     Called by sum_band:
     sum_band:bec :      0.62s CPU      0.62s WALL (      46 calls)
     addusdens    :      6.79s CPU      8.72s WALL (      23 calls)

     Called by *egterg:
     h_psi        :    291.55s CPU    295.58s WALL (     203 calls)
     s_psi        :     80.50s CPU     80.90s WALL (     203 calls)
     g_psi        :      1.25s CPU      1.26s WALL (     155 calls)
     cdiaghg      :    146.85s CPU    155.56s WALL (     199 calls)

     Called by h_psi:
     h_psi:calbec :     82.33s CPU     82.68s WALL (     203 calls)
     vloc_psi     :    126.53s CPU    128.22s WALL (     203 calls)
     add_vuspsi   :     80.70s CPU     81.08s WALL (     203 calls)

     General routines
     calbec       :    123.50s CPU    124.00s WALL (     257 calls)
     fft          :      5.03s CPU      5.18s WALL (     309 calls)
     ffts         :      0.10s CPU      0.11s WALL (      46 calls)
     fftw         :    140.65s CPU    142.48s WALL (  206298 calls)
     interpolate  :      0.37s CPU      0.38s WALL (      23 calls)
 
     Parallel routines
     fft_scatt_xy :     23.26s CPU     23.58s WALL (  206653 calls)
     fft_scatt_yz :     52.12s CPU     52.83s WALL (  206653 calls)
 
     PWSCF        :  15m15.04s CPU  16m37.67s WALL

 
   This run was terminated on:  15:21:54  24Jul2020            

=------------------------------------------------------------------------------=
   JOB DONE.
=------------------------------------------------------------------------------=
