
     Program PWSCF v.6.5 starts on 23Jul2020 at 11:51: 0 

     This program is part of the open-source Quantum ESPRESSO suite
     for quantum simulation of materials; please cite
         "P. Giannozzi et al., J. Phys.:Condens. Matter 21 395502 (2009);
         "P. Giannozzi et al., J. Phys.:Condens. Matter 29 465901 (2017);
          URL http://www.quantum-espresso.org", 
     in publications or presentations arising from this work. More details at
     http://www.quantum-espresso.org/quote

     Parallel version (MPI & OpenMP), running on     144 processor cores
     Number of MPI processes:               144
     Threads/MPI process:                     1

     MPI processes distributed on     4 nodes
     R & G space division:  proc/nbgrp/npool/nimage =     144
     Reading input from ausurf.in

     Current dimensions of program PWSCF are:
     Max number of different atomic species (ntypx) = 10
     Max number of k-points (npk) =  40000
     Max angular momentum in pseudopotentials (lmaxx) =  3

     Subspace diagonalization in iterative solution of the eigenvalue problem:
     one sub-group per band group will be used
     scalapack distributed-memory algorithm (size of sub-group: 12* 12 procs)

 
     Parallelization info
     --------------------
     sticks:   dense  smooth     PW     G-vecs:    dense   smooth      PW
     Min          82      41     10                14984     5293     690
     Max          83      42     11                14994     5305     709
     Sum       11837    5915   1537              2158381   763307  100747
 

     Title: 
      DEISA pw benchmark                                                        


     bravais-lattice index     =            8
     lattice parameter (alat)  =      38.7583  a.u.
     unit-cell volume          =   45191.4962 (a.u.)^3
     number of atoms/cell      =          112
     number of atomic types    =            1
     number of electrons       =      1232.00
     number of Kohn-Sham states=          800
     kinetic-energy cutoff     =      25.0000  Ry
     charge density cutoff     =     200.0000  Ry
     convergence threshold     =      1.0E-06
     mixing beta               =       0.7000
     number of iterations used =            8  plain     mixing
     Exchange-correlation=  SLA  PW   PBE  PBE
                           (   1   4   3   4   0   0   0)

     celldm(1)=  38.758300  celldm(2)=   0.494393  celldm(3)=   1.569966
     celldm(4)=   0.000000  celldm(5)=   0.000000  celldm(6)=   0.000000

     crystal axes: (cart. coord. in units of alat)
               a(1) = (   1.000000   0.000000   0.000000 )  
               a(2) = (   0.000000   0.494393   0.000000 )  
               a(3) = (   0.000000   0.000000   1.569966 )  

     reciprocal axes: (cart. coord. in units 2 pi/alat)
               b(1) = (  1.000000  0.000000  0.000000 )  
               b(2) = (  0.000000  2.022682  0.000000 )  
               b(3) = (  0.000000  0.000000  0.636956 )  


     PseudoPot. # 1 for Au read from file:
     ./Au.pbe-nd-van.UPF
     MD5 check sum: deb5c07af10777505a79e28f5b4b4115
     Pseudo is Ultrasoft + core correction, Zval = 11.0
     Generated by new atomic code, or converted to UPF format
     Using radial grid of  985 points,  3 beta functions with: 
                l(1) =   1
                l(2) =   2
                l(3) =   2
     Q(r) pseudized with  8 coefficients,  rinner =    1.100   1.100   1.100
                                                       1.100   1.100

     atomic species   valence    mass     pseudopotential
        AU            11.00   196.96000     Au( 1.00)

     No symmetry found



   Cartesian axes

     site n.     atom                  positions (alat units)
         1           AU  tau(   1) = (   1.4278395   1.9784974   0.3497317  )
         2           AU  tau(   2) = (   1.4278395   1.7313987   0.3497317  )
         3           AU  tau(   3) = (   1.5706478   1.9784974   0.3497317  )
         4           AU  tau(   4) = (   1.5706478   1.7313987   0.3497317  )
         5           AU  tau(   5) = (   1.7134072   1.9784974   0.3497317  )
         6           AU  tau(   6) = (   1.7134072   1.7313987   0.3497317  )
         7           AU  tau(   7) = (   1.8562156   1.9784974   0.3497317  )
         8           AU  tau(   8) = (   1.8562156   1.7313987   0.3497317  )
         9           AU  tau(   9) = (   1.9989753   1.9784974   0.3497317  )
        10           AU  tau(  10) = (   1.9989753   1.7313987   0.3497317  )
        11           AU  tau(  11) = (   2.1417836   1.9784974   0.3497317  )
        12           AU  tau(  12) = (   2.1417836   1.7313987   0.3497317  )
        13           AU  tau(  13) = (   2.2845431   1.9784974   0.3497317  )
        14           AU  tau(  14) = (   2.2845431   1.7313987   0.3497317  )
        15           AU  tau(  15) = (   1.4278395   2.0609450   0.2331545  )
        16           AU  tau(  16) = (   1.4278395   1.8138461   0.2331545  )
        17           AU  tau(  17) = (   1.5706478   2.0609450   0.2331545  )
        18           AU  tau(  18) = (   1.5706478   1.8138461   0.2331545  )
        19           AU  tau(  19) = (   1.7134072   2.0609450   0.2331545  )
        20           AU  tau(  20) = (   1.7134072   1.8138461   0.2331545  )
        21           AU  tau(  21) = (   1.8562156   2.0609450   0.2331545  )
        22           AU  tau(  22) = (   1.8562156   1.8138461   0.2331545  )
        23           AU  tau(  23) = (   1.9989753   2.0609450   0.2331545  )
        24           AU  tau(  24) = (   1.9989753   1.8138461   0.2331545  )
        25           AU  tau(  25) = (   2.1417836   2.0609450   0.2331545  )
        26           AU  tau(  26) = (   2.1417836   1.8138461   0.2331545  )
        27           AU  tau(  27) = (   2.2845431   2.0609450   0.2331545  )
        28           AU  tau(  28) = (   2.2845431   1.8138461   0.2331545  )
        29           AU  tau(  29) = (   1.4992193   2.1021445   0.3497317  )
        30           AU  tau(  30) = (   1.4992193   1.8550456   0.3497317  )
        31           AU  tau(  31) = (   1.6420276   2.1021445   0.3497317  )
        32           AU  tau(  32) = (   1.6420276   1.8550456   0.3497317  )
        33           AU  tau(  33) = (   1.7847871   2.1021445   0.3497317  )
        34           AU  tau(  34) = (   1.7847871   1.8550456   0.3497317  )
        35           AU  tau(  35) = (   1.9275954   2.1021445   0.3497317  )
        36           AU  tau(  36) = (   1.9275954   1.8550456   0.3497317  )
        37           AU  tau(  37) = (   2.0704038   2.1021445   0.3497317  )
        38           AU  tau(  38) = (   2.0704038   1.8550456   0.3497317  )
        39           AU  tau(  39) = (   2.2131632   2.1021445   0.3497317  )
        40           AU  tau(  40) = (   2.2131632   1.8550456   0.3497317  )
        41           AU  tau(  41) = (   2.3559716   2.1021445   0.3497317  )
        42           AU  tau(  42) = (   2.3559716   1.8550456   0.3497317  )
        43           AU  tau(  43) = (   1.4992193   1.6901992   0.2331545  )
        44           AU  tau(  44) = (   1.4992193   1.9374930   0.2331545  )
        45           AU  tau(  45) = (   1.6420276   1.6901992   0.2331545  )
        46           AU  tau(  46) = (   1.6420276   1.9374930   0.2331545  )
        47           AU  tau(  47) = (   1.7847871   1.6901992   0.2331545  )
        48           AU  tau(  48) = (   1.7847871   1.9374930   0.2331545  )
        49           AU  tau(  49) = (   1.9275954   1.6901992   0.2331545  )
        50           AU  tau(  50) = (   1.9275954   1.9374930   0.2331545  )
        51           AU  tau(  51) = (   2.0704038   1.6901992   0.2331545  )
        52           AU  tau(  52) = (   2.0704038   1.9374930   0.2331545  )
        53           AU  tau(  53) = (   2.2131632   1.6901992   0.2331545  )
        54           AU  tau(  54) = (   2.2131632   1.9374930   0.2331545  )
        55           AU  tau(  55) = (   2.3559716   1.6901992   0.2331545  )
        56           AU  tau(  56) = (   2.3559716   1.9374930   0.2331545  )
        57           AU  tau(  57) = (   1.4278395   1.9784974   0.0000000  )
        58           AU  tau(  58) = (   1.4278395   1.7313987   0.0000000  )
        59           AU  tau(  59) = (   1.5706478   1.9784974   0.0000000  )
        60           AU  tau(  60) = (   1.5706478   1.7313987   0.0000000  )
        61           AU  tau(  61) = (   1.7134072   1.9784974   0.0000000  )
        62           AU  tau(  62) = (   1.7134072   1.7313987   0.0000000  )
        63           AU  tau(  63) = (   1.8562156   1.9784974   0.0000000  )
        64           AU  tau(  64) = (   1.8562156   1.7313987   0.0000000  )
        65           AU  tau(  65) = (   1.9989753   1.9784974   0.0000000  )
        66           AU  tau(  66) = (   1.9989753   1.7313987   0.0000000  )
        67           AU  tau(  67) = (   2.1417836   1.9784974   0.0000000  )
        68           AU  tau(  68) = (   2.1417836   1.7313987   0.0000000  )
        69           AU  tau(  69) = (   2.2845431   1.9784974   0.0000000  )
        70           AU  tau(  70) = (   2.2845431   1.7313987   0.0000000  )
        71           AU  tau(  71) = (   1.4992193   2.0196968   0.1165772  )
        72           AU  tau(  72) = (   1.4992193   1.7725979   0.1165772  )
        73           AU  tau(  73) = (   1.6420276   2.0196968   0.1165772  )
        74           AU  tau(  74) = (   1.6420276   1.7725979   0.1165772  )
        75           AU  tau(  75) = (   1.7847871   2.0196968   0.1165772  )
        76           AU  tau(  76) = (   1.7847871   1.7725979   0.1165772  )
        77           AU  tau(  77) = (   1.9275954   2.0196968   0.1165772  )
        78           AU  tau(  78) = (   1.9275954   1.7725979   0.1165772  )
        79           AU  tau(  79) = (   2.0704038   2.0196968   0.1165772  )
        80           AU  tau(  80) = (   2.0704038   1.7725979   0.1165772  )
        81           AU  tau(  81) = (   2.2131632   2.0196968   0.1165772  )
        82           AU  tau(  82) = (   2.2131632   1.7725979   0.1165772  )
        83           AU  tau(  83) = (   2.3559716   2.0196968   0.1165772  )
        84           AU  tau(  84) = (   2.3559716   1.7725979   0.1165772  )
        85           AU  tau(  85) = (   1.4278395   2.1433437   0.1165772  )
        86           AU  tau(  86) = (   1.4278395   1.8962938   0.1165772  )
        87           AU  tau(  87) = (   1.5706478   2.1433437   0.1165772  )
        88           AU  tau(  88) = (   1.5706478   1.8962938   0.1165772  )
        89           AU  tau(  89) = (   1.7134072   2.1433437   0.1165772  )
        90           AU  tau(  90) = (   1.7134072   1.8962938   0.1165772  )
        91           AU  tau(  91) = (   1.8562156   2.1433437   0.1165772  )
        92           AU  tau(  92) = (   1.8562156   1.8962938   0.1165772  )
        93           AU  tau(  93) = (   1.9989753   2.1433437   0.1165772  )
        94           AU  tau(  94) = (   1.9989753   1.8962938   0.1165772  )
        95           AU  tau(  95) = (   2.1417836   2.1433437   0.1165772  )
        96           AU  tau(  96) = (   2.1417836   1.8962938   0.1165772  )
        97           AU  tau(  97) = (   2.2845431   2.1433437   0.1165772  )
        98           AU  tau(  98) = (   2.2845431   1.8962938   0.1165772  )
        99           AU  tau(  99) = (   1.4992193   2.1021445   0.0000000  )
       100           AU  tau( 100) = (   1.4992193   1.8550456   0.0000000  )
       101           AU  tau( 101) = (   1.6420276   2.1021445   0.0000000  )
       102           AU  tau( 102) = (   1.6420276   1.8550456   0.0000000  )
       103           AU  tau( 103) = (   1.7847871   2.1021445   0.0000000  )
       104           AU  tau( 104) = (   1.7847871   1.8550456   0.0000000  )
       105           AU  tau( 105) = (   1.9275954   2.1021445   0.0000000  )
       106           AU  tau( 106) = (   1.9275954   1.8550456   0.0000000  )
       107           AU  tau( 107) = (   2.0704038   2.1021445   0.0000000  )
       108           AU  tau( 108) = (   2.0704038   1.8550456   0.0000000  )
       109           AU  tau( 109) = (   2.2131632   2.1021445   0.0000000  )
       110           AU  tau( 110) = (   2.2131632   1.8550456   0.0000000  )
       111           AU  tau( 111) = (   2.3559716   2.1021445   0.0000000  )
       112           AU  tau( 112) = (   2.3559716   1.8550456   0.0000000  )

     number of k points=     2  Marzari-Vanderbilt smearing, width (Ry)=  0.0500
                       cart. coord. in units 2pi/alat
        k(    1) = (   0.2500000   0.5056706   0.0000000), wk =   1.0000000
        k(    2) = (  -0.2500000   0.5056706   0.0000000), wk =   1.0000000

     Dense  grid:  2158381 G-vectors     FFT dimensions: ( 180,  90, 288)

     Smooth grid:   763307 G-vectors     FFT dimensions: ( 125,  64, 200)

     Estimated max dynamical RAM per process >     167.32 MB

     Estimated total dynamical RAM >      23.53 GB

     Initial potential from superposition of free atoms

     starting charge 1230.69946, renormalised to 1232.00000

     negative rho (up, down):  3.043E+00 0.000E+00
     Starting wfcs are 1008 randomized atomic wfcs

     total cpu time spent up to now is        9.7 secs

     Self-consistent Calculation

     iteration #  1     ecut=    25.00 Ry     beta= 0.70
     Davidson diagonalization with overlap
     ethr =  1.00E-02,  avg # of iterations =  6.0

     Threshold (ethr) on eigenvalues was too large:
     Diagonalizing with lowered threshold

     Davidson diagonalization with overlap
     c_bands:  1 eigenvalues not converged
     ethr =  4.46E-04,  avg # of iterations = 12.0

     negative rho (up, down):  2.992E+00 0.000E+00

     total cpu time spent up to now is       60.0 secs

     total energy              =  -11423.49153322 Ry
     Harris-Foulkes estimate   =  -11428.44947034 Ry
     estimated scf accuracy    <       6.32518251 Ry

     iteration #  2     ecut=    25.00 Ry     beta= 0.70
     Davidson diagonalization with overlap
     ethr =  5.13E-04,  avg # of iterations = 11.5

     negative rho (up, down):  2.994E+00 0.000E+00

     total cpu time spent up to now is      110.5 secs

     total energy              =  -11408.20810202 Ry
     Harris-Foulkes estimate   =  -11440.29553303 Ry
     estimated scf accuracy    <     197.38456334 Ry

     iteration #  3     ecut=    25.00 Ry     beta= 0.70
     Davidson diagonalization with overlap
     ethr =  5.13E-04,  avg # of iterations =  6.0

     negative rho (up, down):  3.039E+00 0.000E+00

     total cpu time spent up to now is      147.5 secs

     total energy              =  -11426.39781417 Ry
     Harris-Foulkes estimate   =  -11427.98132869 Ry
     estimated scf accuracy    <       5.28613916 Ry

     iteration #  4     ecut=    25.00 Ry     beta= 0.70
     Davidson diagonalization with overlap
     ethr =  4.29E-04,  avg # of iterations =  3.0

     negative rho (up, down):  3.046E+00 0.000E+00

     total cpu time spent up to now is      164.5 secs

     total energy              =  -11426.62473170 Ry
     Harris-Foulkes estimate   =  -11427.34751541 Ry
     estimated scf accuracy    <       4.24381201 Ry

     iteration #  5     ecut=    25.00 Ry     beta= 0.70
     Davidson diagonalization with overlap
     ethr =  3.44E-04,  avg # of iterations =  4.0

     negative rho (up, down):  3.061E+00 0.000E+00

     total cpu time spent up to now is      182.6 secs

     total energy              =  -11426.86822908 Ry
     Harris-Foulkes estimate   =  -11427.36382088 Ry
     estimated scf accuracy    <       4.85167920 Ry

     iteration #  6     ecut=    25.00 Ry     beta= 0.70
     Davidson diagonalization with overlap
     ethr =  3.44E-04,  avg # of iterations =  1.0

     negative rho (up, down):  3.070E+00 0.000E+00

     total cpu time spent up to now is      197.4 secs

     total energy              =  -11427.08115136 Ry
     Harris-Foulkes estimate   =  -11427.10060882 Ry
     estimated scf accuracy    <       0.08447799 Ry

     iteration #  7     ecut=    25.00 Ry     beta= 0.70
     Davidson diagonalization with overlap
     ethr =  6.86E-06,  avg # of iterations = 11.0

     negative rho (up, down):  3.080E+00 0.000E+00

     total cpu time spent up to now is      233.4 secs

     total energy              =  -11427.07352791 Ry
     Harris-Foulkes estimate   =  -11427.11662413 Ry
     estimated scf accuracy    <       0.20450173 Ry

     iteration #  8     ecut=    25.00 Ry     beta= 0.70
     Davidson diagonalization with overlap
     ethr =  6.86E-06,  avg # of iterations =  8.0

     negative rho (up, down):  3.080E+00 0.000E+00

     total cpu time spent up to now is      257.6 secs

     total energy              =  -11427.09175275 Ry
     Harris-Foulkes estimate   =  -11427.09507775 Ry
     estimated scf accuracy    <       0.01826036 Ry

     iteration #  9     ecut=    25.00 Ry     beta= 0.70
     Davidson diagonalization with overlap
     ethr =  1.48E-06,  avg # of iterations =  5.0

     negative rho (up, down):  3.082E+00 0.000E+00

     total cpu time spent up to now is      277.5 secs

     total energy              =  -11427.09189574 Ry
     Harris-Foulkes estimate   =  -11427.09600136 Ry
     estimated scf accuracy    <       0.04616436 Ry

     iteration # 10     ecut=    25.00 Ry     beta= 0.70
     Davidson diagonalization with overlap
     ethr =  1.48E-06,  avg # of iterations =  4.0

     negative rho (up, down):  3.083E+00 0.000E+00

     total cpu time spent up to now is      295.7 secs

     total energy              =  -11427.09344036 Ry
     Harris-Foulkes estimate   =  -11427.09456937 Ry
     estimated scf accuracy    <       0.00505871 Ry

     iteration # 11     ecut=    25.00 Ry     beta= 0.70
     Davidson diagonalization with overlap
     ethr =  4.11E-07,  avg # of iterations =  2.0

     negative rho (up, down):  3.083E+00 0.000E+00

     total cpu time spent up to now is      311.5 secs

     total energy              =  -11427.09371309 Ry
     Harris-Foulkes estimate   =  -11427.09415458 Ry
     estimated scf accuracy    <       0.00261360 Ry

     iteration # 12     ecut=    25.00 Ry     beta= 0.70
     Davidson diagonalization with overlap
     ethr =  2.12E-07,  avg # of iterations =  1.0

     negative rho (up, down):  3.084E+00 0.000E+00

     total cpu time spent up to now is      326.4 secs

     total energy              =  -11427.09385760 Ry
     Harris-Foulkes estimate   =  -11427.09416485 Ry
     estimated scf accuracy    <       0.00301266 Ry

     iteration # 13     ecut=    25.00 Ry     beta= 0.70
     Davidson diagonalization with overlap
     ethr =  2.12E-07,  avg # of iterations =  1.0

     negative rho (up, down):  3.084E+00 0.000E+00

     total cpu time spent up to now is      341.3 secs

     total energy              =  -11427.09396141 Ry
     Harris-Foulkes estimate   =  -11427.09405499 Ry
     estimated scf accuracy    <       0.00033313 Ry

     iteration # 14     ecut=    25.00 Ry     beta= 0.70
     Davidson diagonalization with overlap
     ethr =  2.70E-08,  avg # of iterations =  2.0

     negative rho (up, down):  3.084E+00 0.000E+00

     total cpu time spent up to now is      357.1 secs

     total energy              =  -11427.09397026 Ry
     Harris-Foulkes estimate   =  -11427.09406560 Ry
     estimated scf accuracy    <       0.00052134 Ry

     iteration # 15     ecut=    25.00 Ry     beta= 0.70
     Davidson diagonalization with overlap
     ethr =  2.70E-08,  avg # of iterations =  1.0

     negative rho (up, down):  3.084E+00 0.000E+00

     total cpu time spent up to now is      371.9 secs

     total energy              =  -11427.09400611 Ry
     Harris-Foulkes estimate   =  -11427.09403007 Ry
     estimated scf accuracy    <       0.00013603 Ry

     iteration # 16     ecut=    25.00 Ry     beta= 0.70
     Davidson diagonalization with overlap
     ethr =  1.10E-08,  avg # of iterations =  1.0

     negative rho (up, down):  3.085E+00 0.000E+00

     total cpu time spent up to now is      386.8 secs

     total energy              =  -11427.09401053 Ry
     Harris-Foulkes estimate   =  -11427.09403264 Ry
     estimated scf accuracy    <       0.00020303 Ry

     iteration # 17     ecut=    25.00 Ry     beta= 0.70
     Davidson diagonalization with overlap
     ethr =  1.10E-08,  avg # of iterations =  1.0

     negative rho (up, down):  3.085E+00 0.000E+00

     total cpu time spent up to now is      401.6 secs

     total energy              =  -11427.09402025 Ry
     Harris-Foulkes estimate   =  -11427.09402259 Ry
     estimated scf accuracy    <       0.00000664 Ry

     iteration # 18     ecut=    25.00 Ry     beta= 0.70
     Davidson diagonalization with overlap
     ethr =  5.39E-10,  avg # of iterations =  2.0

     negative rho (up, down):  3.085E+00 0.000E+00

     total cpu time spent up to now is      419.4 secs

     total energy              =  -11427.09402051 Ry
     Harris-Foulkes estimate   =  -11427.09402278 Ry
     estimated scf accuracy    <       0.00001052 Ry

     iteration # 19     ecut=    25.00 Ry     beta= 0.70
     Davidson diagonalization with overlap
     ethr =  5.39E-10,  avg # of iterations =  2.0

     negative rho (up, down):  3.085E+00 0.000E+00

     total cpu time spent up to now is      435.3 secs

     total energy              =  -11427.09402033 Ry
     Harris-Foulkes estimate   =  -11427.09402293 Ry
     estimated scf accuracy    <       0.00002866 Ry

     iteration # 20     ecut=    25.00 Ry     beta= 0.70
     Davidson diagonalization with overlap
     ethr =  5.39E-10,  avg # of iterations =  2.0

     negative rho (up, down):  3.085E+00 0.000E+00

     total cpu time spent up to now is      451.1 secs

     total energy              =  -11427.09402151 Ry
     Harris-Foulkes estimate   =  -11427.09402192 Ry
     estimated scf accuracy    <       0.00000253 Ry

     iteration # 21     ecut=    25.00 Ry     beta= 0.70
     Davidson diagonalization with overlap
     ethr =  2.05E-10,  avg # of iterations =  2.0

     negative rho (up, down):  3.085E+00 0.000E+00

     total cpu time spent up to now is      466.9 secs

     End of self-consistent calculation

          k = 0.2500 0.5057 0.0000 ( 95386 PWs)   bands (ev):

    -8.0051  -7.7856  -7.3697  -7.1566  -6.9591  -6.8867  -6.8077  -6.6748
    -6.6111  -6.2902  -6.2196  -6.1893  -6.1052  -6.0376  -5.9305  -5.9281
    -5.8889  -5.8393  -5.8312  -5.8251  -5.7942  -5.7363  -5.7242  -5.6816
    -5.6677  -5.6498  -5.6456  -5.6404  -5.5500  -5.5387  -5.5312  -5.5229
    -5.5167  -5.5075  -5.4894  -5.4815  -5.4632  -5.4597  -5.4284  -5.3754
    -5.3693  -5.3540  -5.3517  -5.3173  -5.3101  -5.2941  -5.2914  -5.2339
    -5.2329  -5.2329  -5.2285  -5.2185  -5.1999  -5.1789  -5.1556  -5.1449
    -5.1301  -5.1246  -5.1158  -5.1143  -5.1108  -5.1094  -5.0883  -5.0677
    -5.0649  -5.0572  -5.0561  -5.0490  -5.0409  -5.0378  -5.0306  -4.9879
    -4.9823  -4.9671  -4.9640  -4.9482  -4.9344  -4.9326  -4.9290  -4.9271
    -4.9178  -4.9162  -4.9071  -4.9041  -4.8860  -4.8855  -4.8819  -4.8721
    -4.8720  -4.8623  -4.8597  -4.8489  -4.8282  -4.8271  -4.8249  -4.8223
    -4.7420  -4.7394  -4.7378  -4.7369  -4.7331  -4.7257  -4.7213  -4.7210
    -4.7203  -4.7122  -4.6997  -4.6849  -4.6743  -4.6167  -4.6003  -4.5973
    -4.5935  -4.5852  -4.5626  -4.5612  -4.5576  -4.5269  -4.4707  -4.4696
    -4.4510  -4.4139  -4.3981  -4.3953  -4.3937  -4.3933  -4.3918  -4.3855
    -4.3555  -4.3458  -4.3452  -4.3372  -4.3257  -4.3231  -4.3203  -4.3037
    -4.3023  -4.2740  -4.2646  -4.2575  -4.2478  -4.2453  -4.2295  -4.2107
    -4.1939  -4.1680  -4.1563  -4.1552  -4.1547  -4.1531  -4.1484  -4.1396
    -4.1375  -4.1047  -4.0974  -4.0836  -4.0776  -4.0764  -4.0700  -4.0546
    -4.0507  -4.0354  -4.0308  -4.0242  -4.0215  -4.0174  -4.0086  -3.9941
    -3.9869  -3.9709  -3.9588  -3.9277  -3.9141  -3.8987  -3.8932  -3.8897
    -3.8711  -3.8709  -3.8613  -3.8376  -3.8367  -3.8331  -3.8166  -3.8086
    -3.7861  -3.7803  -3.7393  -3.7359  -3.7267  -3.7242  -3.7150  -3.7103
    -3.7011  -3.6854  -3.6809  -3.6713  -3.6591  -3.6406  -3.6193  -3.6193
    -3.6174  -3.6163  -3.6056  -3.6019  -3.5992  -3.5954  -3.5918  -3.5798
    -3.5699  -3.5671  -3.5646  -3.5596  -3.5576  -3.5510  -3.5460  -3.5450
    -3.5436  -3.5344  -3.5237  -3.4924  -3.4823  -3.4564  -3.4542  -3.4430
    -3.4427  -3.4406  -3.4394  -3.4261  -3.4215  -3.4129  -3.4053  -3.3970
    -3.3879  -3.3798  -3.3742  -3.3721  -3.3705  -3.3696  -3.3644  -3.3564
    -3.3527  -3.3375  -3.3358  -3.3270  -3.3262  -3.3245  -3.3201  -3.3172
    -3.3135  -3.3131  -3.3093  -3.3088  -3.2999  -3.2970  -3.2920  -3.2862
    -3.2816  -3.2796  -3.2592  -3.2498  -3.2469  -3.2439  -3.2382  -3.2289
    -3.2197  -3.2190  -3.2143  -3.2103  -3.2023  -3.1999  -3.1890  -3.1807
    -3.1791  -3.1733  -3.1723  -3.1685  -3.1670  -3.1593  -3.1582  -3.1459
    -3.1457  -3.1218  -3.1213  -3.1108  -3.0983  -3.0907  -3.0844  -3.0581
    -3.0415  -3.0401  -3.0346  -3.0334  -3.0263  -3.0240  -3.0232  -3.0182
    -3.0174  -3.0164  -3.0157  -3.0092  -3.0025  -3.0016  -2.9894  -2.9849
    -2.9819  -2.9808  -2.9802  -2.9751  -2.9750  -2.9712  -2.9687  -2.9509
    -2.9153  -2.9131  -2.8902  -2.8759  -2.8743  -2.8624  -2.8598  -2.8494
    -2.8476  -2.8281  -2.8221  -2.8206  -2.7998  -2.7963  -2.7956  -2.7831
    -2.7799  -2.7755  -2.7675  -2.7642  -2.7503  -2.7492  -2.7469  -2.7422
    -2.7233  -2.7225  -2.7207  -2.7181  -2.6629  -2.6545  -2.6463  -2.6368
    -2.6296  -2.6262  -2.6216  -2.5956  -2.5802  -2.5699  -2.5675  -2.5670
    -2.5636  -2.5591  -2.5532  -2.5409  -2.5282  -2.5253  -2.5196  -2.5162
    -2.5091  -2.5073  -2.5012  -2.4930  -2.4900  -2.4864  -2.4805  -2.4794
    -2.4733  -2.4725  -2.4667  -2.4658  -2.4600  -2.4492  -2.4354  -2.4348
    -2.4066  -2.4002  -2.3984  -2.3744  -2.3704  -2.3633  -2.3559  -2.3559
    -2.3488  -2.3453  -2.3357  -2.3325  -2.3154  -2.3005  -2.2930  -2.2720
    -2.2687  -2.2668  -2.2638  -2.2489  -2.2434  -2.2337  -2.2317  -2.2151
    -2.2127  -2.2057  -2.2053  -2.1979  -2.1972  -2.1783  -2.1450  -2.1363
    -2.1305  -2.1059  -2.1024  -2.0849  -2.0676  -2.0486  -2.0476  -2.0443
    -2.0374  -2.0320  -2.0024  -1.9984  -1.9950  -1.9641  -1.9608  -1.9574
    -1.9562  -1.9520  -1.9482  -1.9454  -1.9394  -1.9389  -1.9370  -1.9309
    -1.9300  -1.9277  -1.9172  -1.9123  -1.9079  -1.9022  -1.8648  -1.8558
    -1.8551  -1.8387  -1.8311  -1.8274  -1.8233  -1.8171  -1.8163  -1.8137
    -1.8116  -1.8015  -1.8002  -1.7991  -1.7935  -1.7666  -1.7597  -1.7586
    -1.7576  -1.7484  -1.7433  -1.7426  -1.7367  -1.7367  -1.7267  -1.7240
    -1.7063  -1.7048  -1.6990  -1.6980  -1.6882  -1.6745  -1.6703  -1.6659
    -1.6636  -1.6588  -1.6509  -1.6289  -1.6132  -1.6038  -1.5995  -1.5976
    -1.5793  -1.5761  -1.5756  -1.5741  -1.5603  -1.5448  -1.5044  -1.4993
    -1.4927  -1.4881  -1.4801  -1.4792  -1.4707  -1.4674  -1.4599  -1.4582
    -1.4513  -1.4444  -1.4337  -1.4326  -1.4263  -1.4134  -1.4127  -1.4075
    -1.3998  -1.3818  -1.3719  -1.3686  -1.3631  -1.3582  -1.3455  -1.3398
    -1.3279  -1.3257  -1.3220  -1.3075  -1.3028  -1.2978  -1.2934  -1.2874
    -1.2873  -1.2780  -1.2767  -1.2672  -1.2647  -1.2555  -1.2537  -1.2498
    -1.2418  -1.2398  -1.2281  -1.2278  -1.2201  -1.2194  -1.2193  -1.2190
    -1.2155  -1.2089  -1.2061  -1.1781  -1.1768  -1.1708  -1.1567  -1.1556
    -1.1451  -1.1403  -1.1380  -1.1337  -1.1302  -1.1252  -1.1246  -1.1218
    -1.1190  -1.1077  -1.1061  -1.0986  -1.0876  -1.0830  -1.0802  -1.0782
    -1.0773  -1.0759  -1.0726  -1.0630  -1.0581  -1.0551  -1.0539  -1.0510
    -1.0503  -1.0444  -1.0045  -0.9813  -0.9699  -0.9651  -0.9524  -0.9373
    -0.9360  -0.9294  -0.9247  -0.9208  -0.9163  -0.9079  -0.9005  -0.8821
    -0.8782  -0.8615  -0.8302  -0.8282  -0.8261  -0.7660  -0.6682  -0.6318
    -0.6017  -0.5947  -0.5468  -0.4529  -0.3798  -0.1938  -0.1603  -0.1190
    -0.0036   0.0219   0.0571   0.1551   0.1619   0.1918   0.2705   0.2880
     0.3155   0.3345   0.5885   0.5919   0.6429   0.6717   0.7318   0.7782
     0.8026   0.8034   0.9239   0.9705   0.9830   1.1552   1.1638   1.1983
     1.3016   1.3260   1.3631   1.3874   1.4794   1.5212   1.5256   1.7952
     1.8680   1.8789   1.8971   1.8998   1.9099   1.9750   1.9819   2.0314
     2.0615   2.0732   2.1942   2.4009   2.4062   2.4082   2.4466   2.4513
     2.6430   2.6539   2.6774   2.7097   2.7215   2.7960   2.8415   3.1809
     3.2034   3.2178   3.2815   3.3294   3.3640   3.3777   3.5441   3.5474
     3.5697   3.6168   3.6257   3.7991   3.8063   3.8937   3.9028   4.0003
     4.0224   4.1241   4.1801   4.2438   4.2473   4.2702   4.3017   4.3971
     4.4719   4.4972   4.5209   4.5647   4.6630   4.8051   4.8114   4.8409
     4.8497   4.8522   4.8938   4.9669   4.9889   5.0739   5.0906   5.1943
     5.2013   5.2117   5.2378   5.2617   5.3013   5.4403   5.4933   5.5254
     5.5325   5.5329   5.5443   5.6497   5.6731   5.7195   5.7316   5.8366
     5.8521   5.8738   5.8956   5.9063   5.9063   5.9801   5.9911   6.0158
     6.0171   6.0264   6.0329   6.0421   6.0869   6.1381   6.1418   6.1476
     6.1656   6.2220   6.2292   6.3071   6.4015   6.4092   6.4469   6.4472
     6.4738   6.5147   6.5236   6.5725   6.5877   6.6321   6.6407   6.6538
     6.6609   6.6906   6.7353   6.7481   6.7689   6.8237   6.8288   6.9307
     6.9365   6.9722   6.9726   6.9987   7.0273   7.0635   7.1003   7.1088
     7.1282   7.1636   7.1906   7.1920   7.1997   7.2022   7.2794   7.2910
     7.3065   7.3546   7.3590   7.4024   7.4171   7.4340   7.4641   7.5085
     7.5606   7.5674   7.6061   7.6175   7.6582   7.6583   7.6666   7.6692
     7.6930   7.6937   7.7179   7.7227   7.7376   7.7418   7.7924   7.8310
     7.8578   7.8670   7.9401   7.9886   7.9964   8.0014   8.0247   8.0921

          k =-0.2500 0.5057 0.0000 ( 95386 PWs)   bands (ev):

    -8.0051  -7.7856  -7.3697  -7.1566  -6.9591  -6.8867  -6.8077  -6.6748
    -6.6111  -6.2902  -6.2196  -6.1893  -6.1052  -6.0376  -5.9305  -5.9281
    -5.8889  -5.8393  -5.8312  -5.8251  -5.7942  -5.7363  -5.7242  -5.6816
    -5.6677  -5.6498  -5.6456  -5.6404  -5.5500  -5.5387  -5.5312  -5.5229
    -5.5167  -5.5075  -5.4894  -5.4815  -5.4632  -5.4597  -5.4284  -5.3754
    -5.3693  -5.3540  -5.3517  -5.3173  -5.3101  -5.2941  -5.2914  -5.2339
    -5.2329  -5.2329  -5.2285  -5.2185  -5.1999  -5.1789  -5.1556  -5.1449
    -5.1301  -5.1246  -5.1158  -5.1143  -5.1108  -5.1094  -5.0883  -5.0677
    -5.0649  -5.0572  -5.0561  -5.0490  -5.0409  -5.0378  -5.0306  -4.9879
    -4.9823  -4.9671  -4.9640  -4.9482  -4.9344  -4.9326  -4.9290  -4.9271
    -4.9178  -4.9162  -4.9071  -4.9041  -4.8860  -4.8855  -4.8819  -4.8721
    -4.8720  -4.8623  -4.8597  -4.8489  -4.8282  -4.8271  -4.8249  -4.8223
    -4.7420  -4.7394  -4.7378  -4.7369  -4.7331  -4.7257  -4.7213  -4.7210
    -4.7203  -4.7122  -4.6997  -4.6850  -4.6743  -4.6167  -4.6003  -4.5973
    -4.5935  -4.5852  -4.5626  -4.5612  -4.5576  -4.5269  -4.4707  -4.4696
    -4.4510  -4.4139  -4.3981  -4.3953  -4.3937  -4.3933  -4.3918  -4.3855
    -4.3555  -4.3458  -4.3452  -4.3372  -4.3257  -4.3231  -4.3203  -4.3037
    -4.3023  -4.2740  -4.2646  -4.2575  -4.2478  -4.2453  -4.2295  -4.2107
    -4.1939  -4.1680  -4.1563  -4.1552  -4.1547  -4.1531  -4.1484  -4.1397
    -4.1375  -4.1047  -4.0974  -4.0836  -4.0776  -4.0764  -4.0700  -4.0546
    -4.0507  -4.0354  -4.0308  -4.0242  -4.0215  -4.0174  -4.0086  -3.9941
    -3.9869  -3.9709  -3.9588  -3.9277  -3.9141  -3.8987  -3.8932  -3.8897
    -3.8711  -3.8709  -3.8613  -3.8376  -3.8367  -3.8331  -3.8166  -3.8086
    -3.7861  -3.7803  -3.7393  -3.7359  -3.7267  -3.7242  -3.7150  -3.7103
    -3.7011  -3.6854  -3.6809  -3.6713  -3.6591  -3.6406  -3.6193  -3.6193
    -3.6174  -3.6163  -3.6056  -3.6019  -3.5992  -3.5954  -3.5918  -3.5798
    -3.5699  -3.5671  -3.5646  -3.5596  -3.5576  -3.5510  -3.5460  -3.5450
    -3.5436  -3.5344  -3.5237  -3.4924  -3.4823  -3.4564  -3.4542  -3.4431
    -3.4427  -3.4406  -3.4394  -3.4261  -3.4215  -3.4129  -3.4053  -3.3970
    -3.3879  -3.3798  -3.3742  -3.3721  -3.3704  -3.3696  -3.3644  -3.3564
    -3.3527  -3.3375  -3.3358  -3.3270  -3.3262  -3.3245  -3.3201  -3.3172
    -3.3135  -3.3131  -3.3092  -3.3088  -3.2999  -3.2970  -3.2920  -3.2862
    -3.2816  -3.2796  -3.2592  -3.2498  -3.2469  -3.2439  -3.2382  -3.2289
    -3.2197  -3.2190  -3.2143  -3.2103  -3.2023  -3.1999  -3.1890  -3.1807
    -3.1791  -3.1733  -3.1722  -3.1685  -3.1670  -3.1593  -3.1582  -3.1459
    -3.1457  -3.1218  -3.1212  -3.1108  -3.0983  -3.0907  -3.0844  -3.0581
    -3.0415  -3.0401  -3.0346  -3.0334  -3.0263  -3.0240  -3.0232  -3.0182
    -3.0174  -3.0164  -3.0157  -3.0092  -3.0025  -3.0016  -2.9895  -2.9850
    -2.9819  -2.9808  -2.9801  -2.9751  -2.9751  -2.9712  -2.9687  -2.9509
    -2.9153  -2.9131  -2.8902  -2.8759  -2.8743  -2.8624  -2.8598  -2.8494
    -2.8476  -2.8281  -2.8221  -2.8206  -2.7998  -2.7963  -2.7956  -2.7831
    -2.7799  -2.7755  -2.7675  -2.7642  -2.7503  -2.7492  -2.7469  -2.7422
    -2.7233  -2.7225  -2.7208  -2.7181  -2.6629  -2.6545  -2.6463  -2.6368
    -2.6296  -2.6262  -2.6216  -2.5956  -2.5802  -2.5699  -2.5675  -2.5670
    -2.5636  -2.5591  -2.5532  -2.5409  -2.5282  -2.5253  -2.5196  -2.5162
    -2.5091  -2.5073  -2.5012  -2.4930  -2.4900  -2.4864  -2.4805  -2.4794
    -2.4733  -2.4725  -2.4667  -2.4658  -2.4600  -2.4492  -2.4354  -2.4348
    -2.4066  -2.4002  -2.3984  -2.3744  -2.3704  -2.3633  -2.3559  -2.3559
    -2.3488  -2.3453  -2.3357  -2.3325  -2.3154  -2.3005  -2.2930  -2.2720
    -2.2687  -2.2668  -2.2638  -2.2489  -2.2434  -2.2337  -2.2317  -2.2151
    -2.2127  -2.2057  -2.2053  -2.1979  -2.1972  -2.1783  -2.1450  -2.1362
    -2.1305  -2.1059  -2.1024  -2.0849  -2.0676  -2.0486  -2.0476  -2.0443
    -2.0374  -2.0320  -2.0024  -1.9984  -1.9950  -1.9641  -1.9608  -1.9574
    -1.9562  -1.9520  -1.9482  -1.9454  -1.9394  -1.9389  -1.9370  -1.9310
    -1.9300  -1.9276  -1.9172  -1.9123  -1.9079  -1.9022  -1.8648  -1.8558
    -1.8551  -1.8387  -1.8311  -1.8274  -1.8233  -1.8171  -1.8163  -1.8137
    -1.8116  -1.8015  -1.8002  -1.7991  -1.7935  -1.7666  -1.7597  -1.7586
    -1.7576  -1.7484  -1.7433  -1.7426  -1.7367  -1.7367  -1.7267  -1.7240
    -1.7063  -1.7048  -1.6990  -1.6980  -1.6882  -1.6745  -1.6703  -1.6659
    -1.6636  -1.6588  -1.6509  -1.6289  -1.6132  -1.6038  -1.5995  -1.5976
    -1.5793  -1.5761  -1.5756  -1.5741  -1.5603  -1.5448  -1.5044  -1.4993
    -1.4927  -1.4881  -1.4801  -1.4792  -1.4707  -1.4674  -1.4599  -1.4582
    -1.4512  -1.4444  -1.4337  -1.4326  -1.4263  -1.4134  -1.4127  -1.4075
    -1.3998  -1.3818  -1.3719  -1.3686  -1.3631  -1.3582  -1.3455  -1.3398
    -1.3279  -1.3258  -1.3220  -1.3075  -1.3028  -1.2978  -1.2934  -1.2874
    -1.2873  -1.2780  -1.2767  -1.2672  -1.2647  -1.2555  -1.2537  -1.2498
    -1.2418  -1.2398  -1.2281  -1.2278  -1.2201  -1.2194  -1.2193  -1.2190
    -1.2155  -1.2089  -1.2061  -1.1781  -1.1768  -1.1708  -1.1567  -1.1556
    -1.1451  -1.1403  -1.1380  -1.1337  -1.1302  -1.1252  -1.1246  -1.1218
    -1.1190  -1.1077  -1.1061  -1.0986  -1.0876  -1.0830  -1.0802  -1.0782
    -1.0773  -1.0759  -1.0726  -1.0630  -1.0581  -1.0551  -1.0539  -1.0510
    -1.0503  -1.0444  -1.0045  -0.9813  -0.9699  -0.9651  -0.9524  -0.9375
    -0.9358  -0.9294  -0.9247  -0.9208  -0.9163  -0.9079  -0.9005  -0.8821
    -0.8782  -0.8615  -0.8302  -0.8282  -0.8261  -0.7660  -0.6682  -0.6318
    -0.6017  -0.5947  -0.5468  -0.4529  -0.3798  -0.1938  -0.1603  -0.1190
    -0.0036   0.0219   0.0571   0.1551   0.1619   0.1918   0.2705   0.2880
     0.3155   0.3345   0.5885   0.5919   0.6429   0.6717   0.7318   0.7782
     0.8026   0.8034   0.9239   0.9705   0.9830   1.1552   1.1638   1.1983
     1.3016   1.3260   1.3631   1.3874   1.4794   1.5212   1.5256   1.7952
     1.8680   1.8789   1.8971   1.8998   1.9099   1.9751   1.9819   2.0314
     2.0615   2.0732   2.1942   2.4009   2.4062   2.4082   2.4466   2.4513
     2.6430   2.6539   2.6774   2.7097   2.7215   2.7960   2.8415   3.1809
     3.2034   3.2178   3.2815   3.3294   3.3640   3.3777   3.5441   3.5474
     3.5697   3.6168   3.6257   3.7991   3.8063   3.8937   3.9028   4.0003
     4.0224   4.1241   4.1801   4.2438   4.2473   4.2702   4.3017   4.3971
     4.4719   4.4972   4.5209   4.5647   4.6630   4.8051   4.8114   4.8409
     4.8497   4.8522   4.8938   4.9669   4.9889   5.0739   5.0906   5.1943
     5.2013   5.2117   5.2378   5.2617   5.3013   5.4403   5.4933   5.5254
     5.5325   5.5329   5.5443   5.6497   5.6731   5.7195   5.7316   5.8366
     5.8521   5.8738   5.8956   5.9063   5.9063   5.9801   5.9911   6.0158
     6.0171   6.0264   6.0329   6.0421   6.0869   6.1381   6.1418   6.1476
     6.1656   6.2220   6.2292   6.3071   6.4015   6.4092   6.4469   6.4472
     6.4738   6.5147   6.5236   6.5725   6.5877   6.6321   6.6407   6.6538
     6.6609   6.6906   6.7353   6.7481   6.7689   6.8237   6.8288   6.9307
     6.9365   6.9722   6.9726   6.9987   7.0273   7.0635   7.1003   7.1088
     7.1282   7.1636   7.1906   7.1920   7.1997   7.2022   7.2794   7.2910
     7.3065   7.3546   7.3590   7.4024   7.4171   7.4340   7.4641   7.5085
     7.5606   7.5674   7.6061   7.6175   7.6582   7.6583   7.6666   7.6692
     7.6930   7.6937   7.7179   7.7227   7.7376   7.7418   7.7924   7.8310
     7.8578   7.8670   7.9401   7.9890   7.9964   8.0014   8.0247   8.0921

     the Fermi energy is     0.7843 ev

!    total energy              =  -11427.09402100 Ry
     Harris-Foulkes estimate   =  -11427.09402182 Ry
     estimated scf accuracy    <       0.00000080 Ry

     The total energy is the sum of the following terms:

     one-electron contribution = -129707.81317643 Ry
     hartree contribution      =   65677.99857403 Ry
     xc contribution           =   -5523.82481414 Ry
     ewald contribution        =   58126.48229572 Ry
     smearing contrib. (-TS)   =       0.06309984 Ry

     convergence has been achieved in  21 iterations

     negative rho (up, down):  3.085E+00 0.000E+00

     Forces acting on atoms (cartesian axes, Ry/au):

     atom    1 type  1   force =    -0.00092428    0.00015432    0.00848413
     atom    2 type  1   force =    -0.00091618   -0.00021105    0.00817998
     atom    3 type  1   force =    -0.00006426    0.00021478    0.00900511
     atom    4 type  1   force =    -0.00006354   -0.00015630    0.00869561
     atom    5 type  1   force =    -0.00000633    0.00024627    0.00905090
     atom    6 type  1   force =    -0.00000467   -0.00012531    0.00873986
     atom    7 type  1   force =    -0.00017473    0.00022885    0.00908862
     atom    8 type  1   force =    -0.00017488   -0.00014440    0.00877541
     atom    9 type  1   force =     0.00014070    0.00022788    0.00908181
     atom   10 type  1   force =     0.00013736   -0.00014471    0.00877558
     atom   11 type  1   force =    -0.00010667    0.00023889    0.00911090
     atom   12 type  1   force =    -0.00010811   -0.00013160    0.00879829
     atom   13 type  1   force =     0.00075953    0.00026379    0.00895363
     atom   14 type  1   force =     0.00076100   -0.00010947    0.00864641
     atom   15 type  1   force =    -0.00116665    0.00046552   -0.00528597
     atom   16 type  1   force =    -0.00116191   -0.00011936   -0.00538959
     atom   17 type  1   force =    -0.00004985    0.00043346   -0.00534763
     atom   18 type  1   force =    -0.00005072   -0.00015327   -0.00545025
     atom   19 type  1   force =    -0.00006400    0.00043903   -0.00531023
     atom   20 type  1   force =    -0.00006339   -0.00014713   -0.00541475
     atom   21 type  1   force =    -0.00025328    0.00044270   -0.00525224
     atom   22 type  1   force =    -0.00025314   -0.00014450   -0.00535931
     atom   23 type  1   force =     0.00021142    0.00044247   -0.00524672
     atom   24 type  1   force =     0.00021047   -0.00014415   -0.00535526
     atom   25 type  1   force =    -0.00011922    0.00043502   -0.00529533
     atom   26 type  1   force =    -0.00011813   -0.00015028   -0.00540005
     atom   27 type  1   force =     0.00094784    0.00043753   -0.00527824
     atom   28 type  1   force =     0.00094542   -0.00015268   -0.00538216
     atom   29 type  1   force =    -0.00048615   -0.00006560    0.00862986
     atom   30 type  1   force =    -0.00048707   -0.00054101    0.00868447
     atom   31 type  1   force =    -0.00003032   -0.00008541    0.00875793
     atom   32 type  1   force =    -0.00003043   -0.00056349    0.00881430
     atom   33 type  1   force =    -0.00001323   -0.00009999    0.00876952
     atom   34 type  1   force =    -0.00001294   -0.00057122    0.00882381
     atom   35 type  1   force =    -0.00001287   -0.00008736    0.00886021
     atom   36 type  1   force =    -0.00001313   -0.00055896    0.00891389
     atom   37 type  1   force =    -0.00008178   -0.00009108    0.00878240
     atom   38 type  1   force =    -0.00008240   -0.00056661    0.00883765
     atom   39 type  1   force =     0.00006852   -0.00009856    0.00884293
     atom   40 type  1   force =     0.00006759   -0.00057428    0.00889810
     atom   41 type  1   force =     0.00092282   -0.00018143    0.00819320
     atom   42 type  1   force =     0.00092673   -0.00065102    0.00824868
     atom   43 type  1   force =    -0.00057498   -0.00008115   -0.00534605
     atom   44 type  1   force =    -0.00057482   -0.00065113   -0.00530364
     atom   45 type  1   force =    -0.00006118   -0.00008371   -0.00538439
     atom   46 type  1   force =    -0.00006238   -0.00065013   -0.00534218
     atom   47 type  1   force =    -0.00005695   -0.00007576   -0.00532501
     atom   48 type  1   force =    -0.00005963   -0.00064267   -0.00527847
     atom   49 type  1   force =    -0.00000891   -0.00007932   -0.00528205
     atom   50 type  1   force =    -0.00000655   -0.00064499   -0.00523878
     atom   51 type  1   force =    -0.00004949   -0.00007689   -0.00530925
     atom   52 type  1   force =    -0.00004967   -0.00064266   -0.00526611
     atom   53 type  1   force =     0.00006708   -0.00008940   -0.00535046
     atom   54 type  1   force =     0.00006485   -0.00065535   -0.00530740
     atom   55 type  1   force =     0.00118664   -0.00004674   -0.00532439
     atom   56 type  1   force =     0.00119152   -0.00060658   -0.00528037
     atom   57 type  1   force =    -0.00090076    0.00069550   -0.00853692
     atom   58 type  1   force =    -0.00089609    0.00022927   -0.00818318
     atom   59 type  1   force =    -0.00002655    0.00064818   -0.00906209
     atom   60 type  1   force =    -0.00002731    0.00017616   -0.00870415
     atom   61 type  1   force =     0.00001372    0.00061642   -0.00910639
     atom   62 type  1   force =     0.00001508    0.00014466   -0.00874659
     atom   63 type  1   force =    -0.00018909    0.00063339   -0.00914771
     atom   64 type  1   force =    -0.00018771    0.00016221   -0.00878901
     atom   65 type  1   force =     0.00010904    0.00063392   -0.00914217
     atom   66 type  1   force =     0.00010675    0.00016324   -0.00878545
     atom   67 type  1   force =    -0.00013453    0.00062381   -0.00916268
     atom   68 type  1   force =    -0.00013442    0.00015210   -0.00880451
     atom   69 type  1   force =     0.00074799    0.00060058   -0.00900637
     atom   70 type  1   force =     0.00074847    0.00012779   -0.00865070
     atom   71 type  1   force =    -0.00055683    0.00079471    0.00520643
     atom   72 type  1   force =    -0.00055928    0.00019198    0.00538090
     atom   73 type  1   force =    -0.00004429    0.00079438    0.00520114
     atom   74 type  1   force =    -0.00004334    0.00019291    0.00537833
     atom   75 type  1   force =    -0.00005620    0.00079097    0.00511498
     atom   76 type  1   force =    -0.00005499    0.00018470    0.00529501
     atom   77 type  1   force =    -0.00002029    0.00079458    0.00508930
     atom   78 type  1   force =    -0.00002004    0.00018821    0.00526604
     atom   79 type  1   force =    -0.00006659    0.00078798    0.00514619
     atom   80 type  1   force =    -0.00006573    0.00018597    0.00532319
     atom   81 type  1   force =     0.00005326    0.00080034    0.00522360
     atom   82 type  1   force =     0.00005451    0.00019894    0.00539877
     atom   83 type  1   force =     0.00119095    0.00074988    0.00520829
     atom   84 type  1   force =     0.00118591    0.00015554    0.00538331
     atom   85 type  1   force =    -0.00115353    0.00009595    0.00537315
     atom   86 type  1   force =    -0.00115763   -0.00079336    0.00554543
     atom   87 type  1   force =    -0.00002837    0.00013184    0.00539673
     atom   88 type  1   force =    -0.00002796   -0.00076765    0.00557045
     atom   89 type  1   force =    -0.00005018    0.00012906    0.00531823
     atom   90 type  1   force =    -0.00005199   -0.00077615    0.00549253
     atom   91 type  1   force =    -0.00025860    0.00012375    0.00526160
     atom   92 type  1   force =    -0.00025993   -0.00077864    0.00543442
     atom   93 type  1   force =     0.00019771    0.00012505    0.00527893
     atom   94 type  1   force =     0.00019945   -0.00077942    0.00545251
     atom   95 type  1   force =    -0.00013513    0.00012925    0.00536029
     atom   96 type  1   force =    -0.00013418   -0.00076812    0.00553446
     atom   97 type  1   force =     0.00094113    0.00012793    0.00536945
     atom   98 type  1   force =     0.00094099   -0.00076950    0.00554345
     atom   99 type  1   force =    -0.00045145    0.00015211   -0.00862293
     atom  100 type  1   force =    -0.00045151   -0.00032923   -0.00869091
     atom  101 type  1   force =     0.00000121    0.00017520   -0.00875534
     atom  102 type  1   force =     0.00000124   -0.00030407   -0.00882308
     atom  103 type  1   force =    -0.00001190    0.00018415   -0.00876337
     atom  104 type  1   force =    -0.00001184   -0.00029359   -0.00883094
     atom  105 type  1   force =    -0.00003852    0.00016957   -0.00885536
     atom  106 type  1   force =    -0.00003869   -0.00031022   -0.00892346
     atom  107 type  1   force =    -0.00010999    0.00017908   -0.00877834
     atom  108 type  1   force =    -0.00010997   -0.00029983   -0.00884617
     atom  109 type  1   force =     0.00004522    0.00018469   -0.00883328
     atom  110 type  1   force =     0.00004556   -0.00029388   -0.00890162
     atom  111 type  1   force =     0.00092663    0.00026961   -0.00818139
     atom  112 type  1   force =     0.00092992   -0.00020568   -0.00824986

     Total force =     0.077164     Total SCF correction =     0.005706

     Writing output data file ./ausurf.save/
 
     init_run     :      8.79s CPU      9.26s WALL (       1 calls)
     electrons    :    447.51s CPU    457.35s WALL (       1 calls)
     forces       :      2.99s CPU      3.12s WALL (       1 calls)

     Called by init_run:
     wfcinit      :      7.09s CPU      7.34s WALL (       1 calls)
     potinit      :      0.13s CPU      0.19s WALL (       1 calls)
     hinit0       :      0.50s CPU      0.54s WALL (       1 calls)

     Called by electrons:
     c_bands      :    398.11s CPU    406.15s WALL (      22 calls)
     sum_band     :     46.58s CPU     47.72s WALL (      22 calls)
     v_of_rho     :      0.90s CPU      0.98s WALL (      22 calls)
     newd         :      1.63s CPU      2.01s WALL (      22 calls)
     mix_rho      :      0.23s CPU      0.24s WALL (      22 calls)

     Called by c_bands:
     init_us_2    :      0.90s CPU      0.94s WALL (      92 calls)
     cegterg      :    394.36s CPU    402.17s WALL (      44 calls)

     Called by sum_band:
     sum_band:bec :      0.60s CPU      0.60s WALL (      44 calls)
     addusdens    :      1.45s CPU      1.90s WALL (      22 calls)

     Called by *egterg:
     h_psi        :    199.83s CPU    202.83s WALL (     223 calls)
     s_psi        :     20.95s CPU     21.35s WALL (     223 calls)
     g_psi        :      0.30s CPU      0.30s WALL (     177 calls)
     cdiaghg      :    103.99s CPU    107.09s WALL (     219 calls)

     Called by h_psi:
     h_psi:calbec :     24.27s CPU     24.69s WALL (     223 calls)
     vloc_psi     :    153.90s CPU    155.80s WALL (     223 calls)
     add_vuspsi   :     21.09s CPU     21.54s WALL (     223 calls)

     General routines
     calbec       :     36.31s CPU     36.93s WALL (     275 calls)
     fft          :      1.02s CPU      1.04s WALL (     296 calls)
     ffts         :      0.07s CPU      0.08s WALL (      44 calls)
     fftw         :    181.97s CPU    184.27s WALL (  198672 calls)
     interpolate  :      0.10s CPU      0.11s WALL (      22 calls)
 
     Parallel routines
     fft_scatt_xy :      6.49s CPU      6.56s WALL (  199012 calls)
     fft_scatt_yz :    153.90s CPU    156.04s WALL (  199012 calls)
 
     PWSCF        :   7m43.79s CPU   8m50.93s WALL

 
   This run was terminated on:  11:59:51  23Jul2020            

=------------------------------------------------------------------------------=
   JOB DONE.
=------------------------------------------------------------------------------=
