
     Program PWSCF v.6.5 starts on 23Jul2020 at 11: 2:59 

     This program is part of the open-source Quantum ESPRESSO suite
     for quantum simulation of materials; please cite
         "P. Giannozzi et al., J. Phys.:Condens. Matter 21 395502 (2009);
         "P. Giannozzi et al., J. Phys.:Condens. Matter 29 465901 (2017);
          URL http://www.quantum-espresso.org", 
     in publications or presentations arising from this work. More details at
     http://www.quantum-espresso.org/quote

     Parallel version (MPI & OpenMP), running on      72 processor cores
     Number of MPI processes:                72
     Threads/MPI process:                     1

     MPI processes distributed on     2 nodes
     R & G space division:  proc/nbgrp/npool/nimage =      72
     Reading input from ausurf.in

     Current dimensions of program PWSCF are:
     Max number of different atomic species (ntypx) = 10
     Max number of k-points (npk) =  40000
     Max angular momentum in pseudopotentials (lmaxx) =  3

     Subspace diagonalization in iterative solution of the eigenvalue problem:
     one sub-group per band group will be used
     scalapack distributed-memory algorithm (size of sub-group:  8*  8 procs)

 
     Parallelization info
     --------------------
     sticks:   dense  smooth     PW     G-vecs:    dense   smooth      PW
     Min         164      82     21                29974    10598    1397
     Max         165      84     22                29981    10606    1406
     Sum       11837    5915   1537              2158381   763307  100747
 

     Title: 
      DEISA pw benchmark                                                        


     bravais-lattice index     =            8
     lattice parameter (alat)  =      38.7583  a.u.
     unit-cell volume          =   45191.4962 (a.u.)^3
     number of atoms/cell      =          112
     number of atomic types    =            1
     number of electrons       =      1232.00
     number of Kohn-Sham states=          800
     kinetic-energy cutoff     =      25.0000  Ry
     charge density cutoff     =     200.0000  Ry
     convergence threshold     =      1.0E-06
     mixing beta               =       0.7000
     number of iterations used =            8  plain     mixing
     Exchange-correlation=  SLA  PW   PBE  PBE
                           (   1   4   3   4   0   0   0)

     celldm(1)=  38.758300  celldm(2)=   0.494393  celldm(3)=   1.569966
     celldm(4)=   0.000000  celldm(5)=   0.000000  celldm(6)=   0.000000

     crystal axes: (cart. coord. in units of alat)
               a(1) = (   1.000000   0.000000   0.000000 )  
               a(2) = (   0.000000   0.494393   0.000000 )  
               a(3) = (   0.000000   0.000000   1.569966 )  

     reciprocal axes: (cart. coord. in units 2 pi/alat)
               b(1) = (  1.000000  0.000000  0.000000 )  
               b(2) = (  0.000000  2.022682  0.000000 )  
               b(3) = (  0.000000  0.000000  0.636956 )  


     PseudoPot. # 1 for Au read from file:
     ./Au.pbe-nd-van.UPF
     MD5 check sum: deb5c07af10777505a79e28f5b4b4115
     Pseudo is Ultrasoft + core correction, Zval = 11.0
     Generated by new atomic code, or converted to UPF format
     Using radial grid of  985 points,  3 beta functions with: 
                l(1) =   1
                l(2) =   2
                l(3) =   2
     Q(r) pseudized with  8 coefficients,  rinner =    1.100   1.100   1.100
                                                       1.100   1.100

     atomic species   valence    mass     pseudopotential
        AU            11.00   196.96000     Au( 1.00)

     No symmetry found



   Cartesian axes

     site n.     atom                  positions (alat units)
         1           AU  tau(   1) = (   1.4278395   1.9784974   0.3497317  )
         2           AU  tau(   2) = (   1.4278395   1.7313987   0.3497317  )
         3           AU  tau(   3) = (   1.5706478   1.9784974   0.3497317  )
         4           AU  tau(   4) = (   1.5706478   1.7313987   0.3497317  )
         5           AU  tau(   5) = (   1.7134072   1.9784974   0.3497317  )
         6           AU  tau(   6) = (   1.7134072   1.7313987   0.3497317  )
         7           AU  tau(   7) = (   1.8562156   1.9784974   0.3497317  )
         8           AU  tau(   8) = (   1.8562156   1.7313987   0.3497317  )
         9           AU  tau(   9) = (   1.9989753   1.9784974   0.3497317  )
        10           AU  tau(  10) = (   1.9989753   1.7313987   0.3497317  )
        11           AU  tau(  11) = (   2.1417836   1.9784974   0.3497317  )
        12           AU  tau(  12) = (   2.1417836   1.7313987   0.3497317  )
        13           AU  tau(  13) = (   2.2845431   1.9784974   0.3497317  )
        14           AU  tau(  14) = (   2.2845431   1.7313987   0.3497317  )
        15           AU  tau(  15) = (   1.4278395   2.0609450   0.2331545  )
        16           AU  tau(  16) = (   1.4278395   1.8138461   0.2331545  )
        17           AU  tau(  17) = (   1.5706478   2.0609450   0.2331545  )
        18           AU  tau(  18) = (   1.5706478   1.8138461   0.2331545  )
        19           AU  tau(  19) = (   1.7134072   2.0609450   0.2331545  )
        20           AU  tau(  20) = (   1.7134072   1.8138461   0.2331545  )
        21           AU  tau(  21) = (   1.8562156   2.0609450   0.2331545  )
        22           AU  tau(  22) = (   1.8562156   1.8138461   0.2331545  )
        23           AU  tau(  23) = (   1.9989753   2.0609450   0.2331545  )
        24           AU  tau(  24) = (   1.9989753   1.8138461   0.2331545  )
        25           AU  tau(  25) = (   2.1417836   2.0609450   0.2331545  )
        26           AU  tau(  26) = (   2.1417836   1.8138461   0.2331545  )
        27           AU  tau(  27) = (   2.2845431   2.0609450   0.2331545  )
        28           AU  tau(  28) = (   2.2845431   1.8138461   0.2331545  )
        29           AU  tau(  29) = (   1.4992193   2.1021445   0.3497317  )
        30           AU  tau(  30) = (   1.4992193   1.8550456   0.3497317  )
        31           AU  tau(  31) = (   1.6420276   2.1021445   0.3497317  )
        32           AU  tau(  32) = (   1.6420276   1.8550456   0.3497317  )
        33           AU  tau(  33) = (   1.7847871   2.1021445   0.3497317  )
        34           AU  tau(  34) = (   1.7847871   1.8550456   0.3497317  )
        35           AU  tau(  35) = (   1.9275954   2.1021445   0.3497317  )
        36           AU  tau(  36) = (   1.9275954   1.8550456   0.3497317  )
        37           AU  tau(  37) = (   2.0704038   2.1021445   0.3497317  )
        38           AU  tau(  38) = (   2.0704038   1.8550456   0.3497317  )
        39           AU  tau(  39) = (   2.2131632   2.1021445   0.3497317  )
        40           AU  tau(  40) = (   2.2131632   1.8550456   0.3497317  )
        41           AU  tau(  41) = (   2.3559716   2.1021445   0.3497317  )
        42           AU  tau(  42) = (   2.3559716   1.8550456   0.3497317  )
        43           AU  tau(  43) = (   1.4992193   1.6901992   0.2331545  )
        44           AU  tau(  44) = (   1.4992193   1.9374930   0.2331545  )
        45           AU  tau(  45) = (   1.6420276   1.6901992   0.2331545  )
        46           AU  tau(  46) = (   1.6420276   1.9374930   0.2331545  )
        47           AU  tau(  47) = (   1.7847871   1.6901992   0.2331545  )
        48           AU  tau(  48) = (   1.7847871   1.9374930   0.2331545  )
        49           AU  tau(  49) = (   1.9275954   1.6901992   0.2331545  )
        50           AU  tau(  50) = (   1.9275954   1.9374930   0.2331545  )
        51           AU  tau(  51) = (   2.0704038   1.6901992   0.2331545  )
        52           AU  tau(  52) = (   2.0704038   1.9374930   0.2331545  )
        53           AU  tau(  53) = (   2.2131632   1.6901992   0.2331545  )
        54           AU  tau(  54) = (   2.2131632   1.9374930   0.2331545  )
        55           AU  tau(  55) = (   2.3559716   1.6901992   0.2331545  )
        56           AU  tau(  56) = (   2.3559716   1.9374930   0.2331545  )
        57           AU  tau(  57) = (   1.4278395   1.9784974   0.0000000  )
        58           AU  tau(  58) = (   1.4278395   1.7313987   0.0000000  )
        59           AU  tau(  59) = (   1.5706478   1.9784974   0.0000000  )
        60           AU  tau(  60) = (   1.5706478   1.7313987   0.0000000  )
        61           AU  tau(  61) = (   1.7134072   1.9784974   0.0000000  )
        62           AU  tau(  62) = (   1.7134072   1.7313987   0.0000000  )
        63           AU  tau(  63) = (   1.8562156   1.9784974   0.0000000  )
        64           AU  tau(  64) = (   1.8562156   1.7313987   0.0000000  )
        65           AU  tau(  65) = (   1.9989753   1.9784974   0.0000000  )
        66           AU  tau(  66) = (   1.9989753   1.7313987   0.0000000  )
        67           AU  tau(  67) = (   2.1417836   1.9784974   0.0000000  )
        68           AU  tau(  68) = (   2.1417836   1.7313987   0.0000000  )
        69           AU  tau(  69) = (   2.2845431   1.9784974   0.0000000  )
        70           AU  tau(  70) = (   2.2845431   1.7313987   0.0000000  )
        71           AU  tau(  71) = (   1.4992193   2.0196968   0.1165772  )
        72           AU  tau(  72) = (   1.4992193   1.7725979   0.1165772  )
        73           AU  tau(  73) = (   1.6420276   2.0196968   0.1165772  )
        74           AU  tau(  74) = (   1.6420276   1.7725979   0.1165772  )
        75           AU  tau(  75) = (   1.7847871   2.0196968   0.1165772  )
        76           AU  tau(  76) = (   1.7847871   1.7725979   0.1165772  )
        77           AU  tau(  77) = (   1.9275954   2.0196968   0.1165772  )
        78           AU  tau(  78) = (   1.9275954   1.7725979   0.1165772  )
        79           AU  tau(  79) = (   2.0704038   2.0196968   0.1165772  )
        80           AU  tau(  80) = (   2.0704038   1.7725979   0.1165772  )
        81           AU  tau(  81) = (   2.2131632   2.0196968   0.1165772  )
        82           AU  tau(  82) = (   2.2131632   1.7725979   0.1165772  )
        83           AU  tau(  83) = (   2.3559716   2.0196968   0.1165772  )
        84           AU  tau(  84) = (   2.3559716   1.7725979   0.1165772  )
        85           AU  tau(  85) = (   1.4278395   2.1433437   0.1165772  )
        86           AU  tau(  86) = (   1.4278395   1.8962938   0.1165772  )
        87           AU  tau(  87) = (   1.5706478   2.1433437   0.1165772  )
        88           AU  tau(  88) = (   1.5706478   1.8962938   0.1165772  )
        89           AU  tau(  89) = (   1.7134072   2.1433437   0.1165772  )
        90           AU  tau(  90) = (   1.7134072   1.8962938   0.1165772  )
        91           AU  tau(  91) = (   1.8562156   2.1433437   0.1165772  )
        92           AU  tau(  92) = (   1.8562156   1.8962938   0.1165772  )
        93           AU  tau(  93) = (   1.9989753   2.1433437   0.1165772  )
        94           AU  tau(  94) = (   1.9989753   1.8962938   0.1165772  )
        95           AU  tau(  95) = (   2.1417836   2.1433437   0.1165772  )
        96           AU  tau(  96) = (   2.1417836   1.8962938   0.1165772  )
        97           AU  tau(  97) = (   2.2845431   2.1433437   0.1165772  )
        98           AU  tau(  98) = (   2.2845431   1.8962938   0.1165772  )
        99           AU  tau(  99) = (   1.4992193   2.1021445   0.0000000  )
       100           AU  tau( 100) = (   1.4992193   1.8550456   0.0000000  )
       101           AU  tau( 101) = (   1.6420276   2.1021445   0.0000000  )
       102           AU  tau( 102) = (   1.6420276   1.8550456   0.0000000  )
       103           AU  tau( 103) = (   1.7847871   2.1021445   0.0000000  )
       104           AU  tau( 104) = (   1.7847871   1.8550456   0.0000000  )
       105           AU  tau( 105) = (   1.9275954   2.1021445   0.0000000  )
       106           AU  tau( 106) = (   1.9275954   1.8550456   0.0000000  )
       107           AU  tau( 107) = (   2.0704038   2.1021445   0.0000000  )
       108           AU  tau( 108) = (   2.0704038   1.8550456   0.0000000  )
       109           AU  tau( 109) = (   2.2131632   2.1021445   0.0000000  )
       110           AU  tau( 110) = (   2.2131632   1.8550456   0.0000000  )
       111           AU  tau( 111) = (   2.3559716   2.1021445   0.0000000  )
       112           AU  tau( 112) = (   2.3559716   1.8550456   0.0000000  )

     number of k points=     2  Marzari-Vanderbilt smearing, width (Ry)=  0.0500
                       cart. coord. in units 2pi/alat
        k(    1) = (   0.2500000   0.5056706   0.0000000), wk =   1.0000000
        k(    2) = (  -0.2500000   0.5056706   0.0000000), wk =   1.0000000

     Dense  grid:  2158381 G-vectors     FFT dimensions: ( 180,  90, 288)

     Smooth grid:   763307 G-vectors     FFT dimensions: ( 125,  64, 200)

     Estimated max dynamical RAM per process >     315.71 MB

     Estimated total dynamical RAM >      22.20 GB

     Initial potential from superposition of free atoms

     starting charge 1230.69946, renormalised to 1232.00000

     negative rho (up, down):  3.043E+00 0.000E+00
     Starting wfcs are 1008 randomized atomic wfcs

     total cpu time spent up to now is       10.3 secs

     Self-consistent Calculation

     iteration #  1     ecut=    25.00 Ry     beta= 0.70
     Davidson diagonalization with overlap
     ethr =  1.00E-02,  avg # of iterations =  6.5

     Threshold (ethr) on eigenvalues was too large:
     Diagonalizing with lowered threshold

     Davidson diagonalization with overlap
     ethr =  4.46E-04,  avg # of iterations =  6.5

     negative rho (up, down):  2.992E+00 0.000E+00

     total cpu time spent up to now is       64.9 secs

     total energy              =  -11423.49732551 Ry
     Harris-Foulkes estimate   =  -11428.44892066 Ry
     estimated scf accuracy    <       6.31684201 Ry

     iteration #  2     ecut=    25.00 Ry     beta= 0.70
     Davidson diagonalization with overlap
     ethr =  5.13E-04,  avg # of iterations = 11.0

     negative rho (up, down):  2.994E+00 0.000E+00

     total cpu time spent up to now is      134.4 secs

     total energy              =  -11408.22857617 Ry
     Harris-Foulkes estimate   =  -11440.28366638 Ry
     estimated scf accuracy    <     197.20565375 Ry

     iteration #  3     ecut=    25.00 Ry     beta= 0.70
     Davidson diagonalization with overlap
     ethr =  5.13E-04,  avg # of iterations =  6.0

     negative rho (up, down):  3.039E+00 0.000E+00

     total cpu time spent up to now is      181.8 secs

     total energy              =  -11426.39802797 Ry
     Harris-Foulkes estimate   =  -11427.97899224 Ry
     estimated scf accuracy    <       5.27594467 Ry

     iteration #  4     ecut=    25.00 Ry     beta= 0.70
     Davidson diagonalization with overlap
     ethr =  4.28E-04,  avg # of iterations =  3.0

     negative rho (up, down):  3.046E+00 0.000E+00

     total cpu time spent up to now is      201.6 secs

     total energy              =  -11426.62190447 Ry
     Harris-Foulkes estimate   =  -11427.34962345 Ry
     estimated scf accuracy    <       4.28825598 Ry

     iteration #  5     ecut=    25.00 Ry     beta= 0.70
     Davidson diagonalization with overlap
     ethr =  3.48E-04,  avg # of iterations =  4.0

     negative rho (up, down):  3.061E+00 0.000E+00

     total cpu time spent up to now is      222.4 secs

     total energy              =  -11426.86879679 Ry
     Harris-Foulkes estimate   =  -11427.36292646 Ry
     estimated scf accuracy    <       4.83208675 Ry

     iteration #  6     ecut=    25.00 Ry     beta= 0.70
     Davidson diagonalization with overlap
     ethr =  3.48E-04,  avg # of iterations =  1.0

     negative rho (up, down):  3.070E+00 0.000E+00

     total cpu time spent up to now is      239.3 secs

     total energy              =  -11427.08108576 Ry
     Harris-Foulkes estimate   =  -11427.10060375 Ry
     estimated scf accuracy    <       0.08452630 Ry

     iteration #  7     ecut=    25.00 Ry     beta= 0.70
     Davidson diagonalization with overlap
     ethr =  6.86E-06,  avg # of iterations = 12.0

     negative rho (up, down):  3.080E+00 0.000E+00

     total cpu time spent up to now is      286.5 secs

     total energy              =  -11427.07300385 Ry
     Harris-Foulkes estimate   =  -11427.11679270 Ry
     estimated scf accuracy    <       0.20974848 Ry

     iteration #  8     ecut=    25.00 Ry     beta= 0.70
     Davidson diagonalization with overlap
     ethr =  6.86E-06,  avg # of iterations =  8.0

     negative rho (up, down):  3.080E+00 0.000E+00

     total cpu time spent up to now is      315.5 secs

     total energy              =  -11427.08906711 Ry
     Harris-Foulkes estimate   =  -11427.09760237 Ry
     estimated scf accuracy    <       0.08476390 Ry

     iteration #  9     ecut=    25.00 Ry     beta= 0.70
     Davidson diagonalization with overlap
     ethr =  6.86E-06,  avg # of iterations =  3.0

     negative rho (up, down):  3.082E+00 0.000E+00

     total cpu time spent up to now is      335.1 secs

     total energy              =  -11427.09305858 Ry
     Harris-Foulkes estimate   =  -11427.09491800 Ry
     estimated scf accuracy    <       0.01496314 Ry

     iteration # 10     ecut=    25.00 Ry     beta= 0.70
     Davidson diagonalization with overlap
     ethr =  1.21E-06,  avg # of iterations =  4.0

     negative rho (up, down):  3.083E+00 0.000E+00

     total cpu time spent up to now is      355.9 secs

     total energy              =  -11427.09346304 Ry
     Harris-Foulkes estimate   =  -11427.09454835 Ry
     estimated scf accuracy    <       0.00436349 Ry

     iteration # 11     ecut=    25.00 Ry     beta= 0.70
     Davidson diagonalization with overlap
     ethr =  3.54E-07,  avg # of iterations =  2.0

     negative rho (up, down):  3.083E+00 0.000E+00

     total cpu time spent up to now is      374.0 secs

     total energy              =  -11427.09375746 Ry
     Harris-Foulkes estimate   =  -11427.09413125 Ry
     estimated scf accuracy    <       0.00174818 Ry

     iteration # 12     ecut=    25.00 Ry     beta= 0.70
     Davidson diagonalization with overlap
     ethr =  1.42E-07,  avg # of iterations =  2.0

     negative rho (up, down):  3.084E+00 0.000E+00

     total cpu time spent up to now is      392.1 secs

     total energy              =  -11427.09380470 Ry
     Harris-Foulkes estimate   =  -11427.09418608 Ry
     estimated scf accuracy    <       0.00350611 Ry

     iteration # 13     ecut=    25.00 Ry     beta= 0.70
     Davidson diagonalization with overlap
     ethr =  1.42E-07,  avg # of iterations =  1.0

     negative rho (up, down):  3.084E+00 0.000E+00

     total cpu time spent up to now is      409.1 secs

     total energy              =  -11427.09388310 Ry
     Harris-Foulkes estimate   =  -11427.09412737 Ry
     estimated scf accuracy    <       0.00154985 Ry

     iteration # 14     ecut=    25.00 Ry     beta= 0.70
     Davidson diagonalization with overlap
     ethr =  1.26E-07,  avg # of iterations =  1.0

     negative rho (up, down):  3.084E+00 0.000E+00

     total cpu time spent up to now is      426.1 secs

     total energy              =  -11427.09397514 Ry
     Harris-Foulkes estimate   =  -11427.09405577 Ry
     estimated scf accuracy    <       0.00033358 Ry

     iteration # 15     ecut=    25.00 Ry     beta= 0.70
     Davidson diagonalization with overlap
     ethr =  2.71E-08,  avg # of iterations =  2.0

     negative rho (up, down):  3.084E+00 0.000E+00

     total cpu time spent up to now is      444.2 secs

     total energy              =  -11427.09398316 Ry
     Harris-Foulkes estimate   =  -11427.09405152 Ry
     estimated scf accuracy    <       0.00065568 Ry

     iteration # 16     ecut=    25.00 Ry     beta= 0.70
     Davidson diagonalization with overlap
     ethr =  2.71E-08,  avg # of iterations =  1.0

     negative rho (up, down):  3.084E+00 0.000E+00

     total cpu time spent up to now is      461.1 secs

     total energy              =  -11427.09401631 Ry
     Harris-Foulkes estimate   =  -11427.09402641 Ry
     estimated scf accuracy    <       0.00005887 Ry

     iteration # 17     ecut=    25.00 Ry     beta= 0.70
     Davidson diagonalization with overlap
     ethr =  4.78E-09,  avg # of iterations =  1.0

     negative rho (up, down):  3.085E+00 0.000E+00

     total cpu time spent up to now is      478.1 secs

     total energy              =  -11427.09402016 Ry
     Harris-Foulkes estimate   =  -11427.09402287 Ry
     estimated scf accuracy    <       0.00000864 Ry

     iteration # 18     ecut=    25.00 Ry     beta= 0.70
     Davidson diagonalization with overlap
     ethr =  7.01E-10,  avg # of iterations =  2.0

     negative rho (up, down):  3.085E+00 0.000E+00

     total cpu time spent up to now is      496.6 secs

     total energy              =  -11427.09402080 Ry
     Harris-Foulkes estimate   =  -11427.09402235 Ry
     estimated scf accuracy    <       0.00000556 Ry

     iteration # 19     ecut=    25.00 Ry     beta= 0.70
     Davidson diagonalization with overlap
     ethr =  4.51E-10,  avg # of iterations =  2.0

     negative rho (up, down):  3.085E+00 0.000E+00

     total cpu time spent up to now is      515.0 secs

     total energy              =  -11427.09401947 Ry
     Harris-Foulkes estimate   =  -11427.09402384 Ry
     estimated scf accuracy    <       0.00005301 Ry

     iteration # 20     ecut=    25.00 Ry     beta= 0.70
     Davidson diagonalization with overlap
     ethr =  4.51E-10,  avg # of iterations =  2.0

     negative rho (up, down):  3.085E+00 0.000E+00

     total cpu time spent up to now is      533.2 secs

     total energy              =  -11427.09402159 Ry
     Harris-Foulkes estimate   =  -11427.09402187 Ry
     estimated scf accuracy    <       0.00000117 Ry

     iteration # 21     ecut=    25.00 Ry     beta= 0.70
     Davidson diagonalization with overlap
     ethr =  9.53E-11,  avg # of iterations =  2.0

     negative rho (up, down):  3.085E+00 0.000E+00

     total cpu time spent up to now is      551.5 secs

     End of self-consistent calculation

          k = 0.2500 0.5057 0.0000 ( 95386 PWs)   bands (ev):

    -8.0048  -7.7854  -7.3694  -7.1564  -6.9588  -6.8865  -6.8075  -6.6746
    -6.6108  -6.2900  -6.2194  -6.1890  -6.1050  -6.0373  -5.9302  -5.9279
    -5.8887  -5.8391  -5.8310  -5.8249  -5.7939  -5.7360  -5.7239  -5.6814
    -5.6675  -5.6495  -5.6454  -5.6401  -5.5498  -5.5384  -5.5309  -5.5227
    -5.5164  -5.5072  -5.4892  -5.4812  -5.4629  -5.4595  -5.4282  -5.3751
    -5.3690  -5.3537  -5.3515  -5.3171  -5.3099  -5.2938  -5.2912  -5.2337
    -5.2326  -5.2326  -5.2282  -5.2183  -5.1997  -5.1786  -5.1554  -5.1446
    -5.1298  -5.1244  -5.1157  -5.1141  -5.1105  -5.1092  -5.0880  -5.0675
    -5.0647  -5.0570  -5.0559  -5.0489  -5.0407  -5.0377  -5.0304  -4.9877
    -4.9820  -4.9669  -4.9637  -4.9481  -4.9342  -4.9323  -4.9289  -4.9268
    -4.9176  -4.9159  -4.9069  -4.9039  -4.8857  -4.8853  -4.8817  -4.8719
    -4.8718  -4.8621  -4.8595  -4.8487  -4.8280  -4.8269  -4.8247  -4.8220
    -4.7418  -4.7393  -4.7376  -4.7368  -4.7328  -4.7255  -4.7211  -4.7208
    -4.7202  -4.7120  -4.6994  -4.6847  -4.6742  -4.6165  -4.6000  -4.5970
    -4.5933  -4.5849  -4.5624  -4.5610  -4.5573  -4.5267  -4.4706  -4.4695
    -4.4508  -4.4137  -4.3979  -4.3951  -4.3934  -4.3931  -4.3916  -4.3853
    -4.3553  -4.3456  -4.3450  -4.3370  -4.3256  -4.3229  -4.3201  -4.3035
    -4.3020  -4.2738  -4.2644  -4.2573  -4.2477  -4.2451  -4.2294  -4.2105
    -4.1937  -4.1678  -4.1561  -4.1550  -4.1545  -4.1530  -4.1482  -4.1395
    -4.1372  -4.1044  -4.0971  -4.0834  -4.0774  -4.0762  -4.0698  -4.0543
    -4.0505  -4.0352  -4.0306  -4.0240  -4.0213  -4.0171  -4.0084  -3.9938
    -3.9867  -3.9706  -3.9585  -3.9274  -3.9140  -3.8985  -3.8930  -3.8895
    -3.8709  -3.8706  -3.8611  -3.8373  -3.8365  -3.8329  -3.8164  -3.8083
    -3.7859  -3.7800  -3.7391  -3.7357  -3.7264  -3.7240  -3.7149  -3.7101
    -3.7009  -3.6852  -3.6806  -3.6711  -3.6588  -3.6404  -3.6191  -3.6191
    -3.6172  -3.6161  -3.6055  -3.6018  -3.5990  -3.5951  -3.5916  -3.5796
    -3.5697  -3.5669  -3.5645  -3.5595  -3.5574  -3.5508  -3.5458  -3.5447
    -3.5434  -3.5341  -3.5235  -3.4922  -3.4822  -3.4562  -3.4539  -3.4428
    -3.4424  -3.4404  -3.4391  -3.4260  -3.4213  -3.4126  -3.4050  -3.3969
    -3.3878  -3.3796  -3.3739  -3.3719  -3.3703  -3.3694  -3.3642  -3.3562
    -3.3524  -3.3373  -3.3355  -3.3268  -3.3260  -3.3243  -3.3199  -3.3171
    -3.3133  -3.3129  -3.3091  -3.3085  -3.2996  -3.2969  -3.2918  -3.2860
    -3.2813  -3.2794  -3.2590  -3.2497  -3.2467  -3.2437  -3.2381  -3.2287
    -3.2196  -3.2188  -3.2141  -3.2101  -3.2021  -3.1997  -3.1889  -3.1804
    -3.1789  -3.1732  -3.1720  -3.1683  -3.1668  -3.1592  -3.1580  -3.1458
    -3.1456  -3.1215  -3.1211  -3.1105  -3.0982  -3.0906  -3.0843  -3.0579
    -3.0412  -3.0399  -3.0344  -3.0332  -3.0261  -3.0238  -3.0230  -3.0180
    -3.0172  -3.0162  -3.0155  -3.0091  -3.0023  -3.0014  -2.9892  -2.9848
    -2.9817  -2.9807  -2.9800  -2.9749  -2.9749  -2.9710  -2.9686  -2.9508
    -2.9150  -2.9130  -2.8900  -2.8758  -2.8741  -2.8623  -2.8596  -2.8492
    -2.8475  -2.8280  -2.8220  -2.8204  -2.7996  -2.7961  -2.7955  -2.7830
    -2.7796  -2.7753  -2.7673  -2.7640  -2.7502  -2.7491  -2.7467  -2.7421
    -2.7232  -2.7224  -2.7206  -2.7179  -2.6628  -2.6543  -2.6461  -2.6366
    -2.6295  -2.6260  -2.6214  -2.5955  -2.5801  -2.5697  -2.5673  -2.5668
    -2.5634  -2.5590  -2.5530  -2.5407  -2.5280  -2.5251  -2.5194  -2.5160
    -2.5090  -2.5071  -2.5010  -2.4928  -2.4898  -2.4862  -2.4804  -2.4792
    -2.4731  -2.4723  -2.4665  -2.4656  -2.4597  -2.4490  -2.4352  -2.4346
    -2.4064  -2.4001  -2.3982  -2.3742  -2.3702  -2.3632  -2.3558  -2.3557
    -2.3486  -2.3452  -2.3355  -2.3324  -2.3153  -2.3003  -2.2928  -2.2718
    -2.2685  -2.2667  -2.2637  -2.2487  -2.2432  -2.2335  -2.2316  -2.2150
    -2.2125  -2.2054  -2.2052  -2.1978  -2.1970  -2.1782  -2.1448  -2.1360
    -2.1303  -2.1058  -2.1023  -2.0847  -2.0674  -2.0484  -2.0474  -2.0441
    -2.0373  -2.0319  -2.0022  -1.9982  -1.9948  -1.9640  -1.9606  -1.9572
    -1.9560  -1.9519  -1.9480  -1.9452  -1.9392  -1.9387  -1.9369  -1.9308
    -1.9299  -1.9275  -1.9170  -1.9122  -1.9078  -1.9020  -1.8646  -1.8556
    -1.8550  -1.8385  -1.8310  -1.8272  -1.8231  -1.8170  -1.8161  -1.8135
    -1.8115  -1.8014  -1.8001  -1.7990  -1.7933  -1.7664  -1.7595  -1.7585
    -1.7574  -1.7483  -1.7431  -1.7424  -1.7365  -1.7364  -1.7266  -1.7238
    -1.7062  -1.7047  -1.6988  -1.6979  -1.6880  -1.6744  -1.6701  -1.6657
    -1.6635  -1.6587  -1.6508  -1.6287  -1.6130  -1.6037  -1.5993  -1.5974
    -1.5791  -1.5760  -1.5754  -1.5739  -1.5601  -1.5447  -1.5043  -1.4991
    -1.4926  -1.4880  -1.4800  -1.4791  -1.4706  -1.4672  -1.4598  -1.4580
    -1.4510  -1.4443  -1.4336  -1.4324  -1.4261  -1.4132  -1.4126  -1.4073
    -1.3996  -1.3816  -1.3717  -1.3684  -1.3629  -1.3579  -1.3453  -1.3395
    -1.3277  -1.3256  -1.3218  -1.3073  -1.3025  -1.2977  -1.2932  -1.2873
    -1.2871  -1.2778  -1.2765  -1.2670  -1.2646  -1.2553  -1.2536  -1.2497
    -1.2416  -1.2396  -1.2279  -1.2276  -1.2199  -1.2192  -1.2191  -1.2188
    -1.2153  -1.2087  -1.2059  -1.1779  -1.1766  -1.1706  -1.1565  -1.1554
    -1.1449  -1.1401  -1.1378  -1.1335  -1.1300  -1.1250  -1.1244  -1.1217
    -1.1188  -1.1075  -1.1059  -1.0984  -1.0873  -1.0828  -1.0799  -1.0780
    -1.0771  -1.0757  -1.0724  -1.0628  -1.0579  -1.0549  -1.0536  -1.0508
    -1.0501  -1.0441  -1.0044  -0.9810  -0.9697  -0.9649  -0.9522  -0.9372
    -0.9359  -0.9293  -0.9245  -0.9207  -0.9160  -0.9077  -0.9003  -0.8819
    -0.8780  -0.8614  -0.8300  -0.8281  -0.8260  -0.7658  -0.6681  -0.6316
    -0.6015  -0.5945  -0.5467  -0.4528  -0.3797  -0.1935  -0.1602  -0.1189
    -0.0035   0.0221   0.0573   0.1553   0.1621   0.1919   0.2706   0.2883
     0.3156   0.3347   0.5887   0.5922   0.6431   0.6719   0.7320   0.7783
     0.8027   0.8035   0.9241   0.9707   0.9831   1.1554   1.1640   1.1985
     1.3018   1.3263   1.3633   1.3876   1.4796   1.5213   1.5258   1.7955
     1.8682   1.8791   1.8972   1.9000   1.9101   1.9752   1.9821   2.0315
     2.0616   2.0734   2.1944   2.4011   2.4063   2.4083   2.4469   2.4514
     2.6432   2.6540   2.6776   2.7099   2.7216   2.7962   2.8417   3.1810
     3.2035   3.2179   3.2817   3.3295   3.3642   3.3779   3.5443   3.5475
     3.5700   3.6169   3.6259   3.7993   3.8064   3.8939   3.9030   4.0004
     4.0226   4.1243   4.1804   4.2439   4.2474   4.2704   4.3018   4.3974
     4.4721   4.4974   4.5211   4.5649   4.6630   4.8052   4.8115   4.8411
     4.8498   4.8524   4.8939   4.9670   4.9890   5.0741   5.0907   5.1945
     5.2015   5.2119   5.2381   5.2619   5.3013   5.4403   5.4932   5.5256
     5.5327   5.5331   5.5444   5.6499   5.6730   5.7195   5.7318   5.8368
     5.8523   5.8738   5.8957   5.9063   5.9064   5.9800   5.9913   6.0159
     6.0171   6.0265   6.0328   6.0423   6.0868   6.1382   6.1417   6.1477
     6.1657   6.2222   6.2291   6.3071   6.4016   6.4091   6.4469   6.4474
     6.4738   6.5149   6.5237   6.5725   6.5878   6.6323   6.6406   6.6540
     6.6608   6.6908   6.7354   6.7482   6.7688   6.8236   6.8288   6.9306
     6.9365   6.9722   6.9727   6.9987   7.0275   7.0636   7.1003   7.1088
     7.1284   7.1636   7.1907   7.1919   7.1998   7.2023   7.2796   7.2909
     7.3065   7.3547   7.3592   7.4025   7.4172   7.4339   7.4640   7.5086
     7.5608   7.5676   7.6063   7.6175   7.6581   7.6582   7.6665   7.6694
     7.6930   7.6938   7.7179   7.7229   7.7376   7.7420   7.7924   7.8310
     7.8580   7.8671   7.9401   7.9892   7.9963   8.0016   8.0249   8.0923

          k =-0.2500 0.5057 0.0000 ( 95386 PWs)   bands (ev):

    -8.0048  -7.7854  -7.3694  -7.1564  -6.9588  -6.8865  -6.8075  -6.6746
    -6.6108  -6.2900  -6.2194  -6.1890  -6.1050  -6.0373  -5.9302  -5.9279
    -5.8887  -5.8391  -5.8310  -5.8249  -5.7939  -5.7360  -5.7239  -5.6814
    -5.6675  -5.6495  -5.6454  -5.6401  -5.5498  -5.5384  -5.5309  -5.5227
    -5.5164  -5.5072  -5.4892  -5.4812  -5.4629  -5.4595  -5.4282  -5.3751
    -5.3690  -5.3537  -5.3515  -5.3171  -5.3099  -5.2938  -5.2912  -5.2337
    -5.2326  -5.2326  -5.2282  -5.2183  -5.1997  -5.1786  -5.1554  -5.1446
    -5.1298  -5.1244  -5.1157  -5.1141  -5.1105  -5.1092  -5.0880  -5.0675
    -5.0647  -5.0570  -5.0559  -5.0489  -5.0407  -5.0377  -5.0304  -4.9877
    -4.9820  -4.9669  -4.9637  -4.9481  -4.9342  -4.9323  -4.9288  -4.9268
    -4.9176  -4.9159  -4.9069  -4.9039  -4.8857  -4.8853  -4.8817  -4.8719
    -4.8718  -4.8621  -4.8595  -4.8487  -4.8280  -4.8269  -4.8247  -4.8220
    -4.7418  -4.7393  -4.7376  -4.7368  -4.7328  -4.7255  -4.7211  -4.7208
    -4.7202  -4.7120  -4.6994  -4.6847  -4.6742  -4.6165  -4.6000  -4.5970
    -4.5933  -4.5849  -4.5624  -4.5610  -4.5573  -4.5267  -4.4706  -4.4695
    -4.4508  -4.4137  -4.3979  -4.3951  -4.3934  -4.3931  -4.3916  -4.3853
    -4.3553  -4.3456  -4.3450  -4.3370  -4.3256  -4.3229  -4.3201  -4.3035
    -4.3020  -4.2738  -4.2644  -4.2573  -4.2477  -4.2451  -4.2294  -4.2105
    -4.1937  -4.1678  -4.1561  -4.1550  -4.1545  -4.1530  -4.1482  -4.1395
    -4.1372  -4.1044  -4.0971  -4.0834  -4.0774  -4.0761  -4.0698  -4.0543
    -4.0505  -4.0352  -4.0306  -4.0239  -4.0213  -4.0171  -4.0084  -3.9938
    -3.9867  -3.9706  -3.9585  -3.9274  -3.9139  -3.8985  -3.8930  -3.8895
    -3.8709  -3.8706  -3.8611  -3.8373  -3.8365  -3.8329  -3.8164  -3.8083
    -3.7859  -3.7800  -3.7391  -3.7357  -3.7264  -3.7240  -3.7149  -3.7101
    -3.7009  -3.6852  -3.6806  -3.6711  -3.6588  -3.6404  -3.6191  -3.6191
    -3.6172  -3.6161  -3.6055  -3.6018  -3.5990  -3.5951  -3.5916  -3.5796
    -3.5697  -3.5669  -3.5645  -3.5594  -3.5574  -3.5508  -3.5458  -3.5447
    -3.5434  -3.5341  -3.5235  -3.4922  -3.4822  -3.4562  -3.4539  -3.4428
    -3.4424  -3.4404  -3.4391  -3.4260  -3.4213  -3.4126  -3.4050  -3.3969
    -3.3878  -3.3796  -3.3739  -3.3719  -3.3702  -3.3694  -3.3642  -3.3562
    -3.3525  -3.3373  -3.3356  -3.3268  -3.3260  -3.3243  -3.3199  -3.3171
    -3.3133  -3.3129  -3.3091  -3.3085  -3.2996  -3.2969  -3.2918  -3.2860
    -3.2813  -3.2794  -3.2590  -3.2497  -3.2467  -3.2437  -3.2381  -3.2287
    -3.2196  -3.2188  -3.2141  -3.2101  -3.2021  -3.1997  -3.1889  -3.1804
    -3.1789  -3.1732  -3.1720  -3.1683  -3.1668  -3.1592  -3.1580  -3.1458
    -3.1456  -3.1215  -3.1211  -3.1105  -3.0982  -3.0906  -3.0843  -3.0579
    -3.0412  -3.0399  -3.0344  -3.0332  -3.0261  -3.0238  -3.0230  -3.0180
    -3.0172  -3.0162  -3.0155  -3.0091  -3.0023  -3.0014  -2.9893  -2.9848
    -2.9817  -2.9806  -2.9799  -2.9749  -2.9749  -2.9710  -2.9686  -2.9508
    -2.9150  -2.9130  -2.8900  -2.8758  -2.8741  -2.8623  -2.8596  -2.8492
    -2.8475  -2.8280  -2.8220  -2.8204  -2.7996  -2.7962  -2.7955  -2.7830
    -2.7796  -2.7753  -2.7673  -2.7640  -2.7502  -2.7491  -2.7467  -2.7421
    -2.7232  -2.7224  -2.7206  -2.7179  -2.6628  -2.6542  -2.6461  -2.6366
    -2.6295  -2.6260  -2.6214  -2.5955  -2.5801  -2.5697  -2.5673  -2.5668
    -2.5635  -2.5590  -2.5530  -2.5407  -2.5280  -2.5251  -2.5194  -2.5160
    -2.5089  -2.5071  -2.5011  -2.4928  -2.4898  -2.4862  -2.4804  -2.4792
    -2.4731  -2.4723  -2.4665  -2.4656  -2.4597  -2.4490  -2.4352  -2.4346
    -2.4064  -2.4001  -2.3982  -2.3742  -2.3702  -2.3632  -2.3558  -2.3557
    -2.3486  -2.3452  -2.3355  -2.3324  -2.3153  -2.3003  -2.2928  -2.2718
    -2.2685  -2.2667  -2.2637  -2.2487  -2.2432  -2.2335  -2.2316  -2.2150
    -2.2125  -2.2054  -2.2052  -2.1978  -2.1970  -2.1782  -2.1448  -2.1360
    -2.1303  -2.1058  -2.1023  -2.0847  -2.0674  -2.0484  -2.0474  -2.0441
    -2.0373  -2.0319  -2.0022  -1.9982  -1.9948  -1.9640  -1.9606  -1.9572
    -1.9560  -1.9519  -1.9480  -1.9452  -1.9392  -1.9387  -1.9369  -1.9309
    -1.9299  -1.9275  -1.9170  -1.9122  -1.9078  -1.9020  -1.8646  -1.8556
    -1.8550  -1.8385  -1.8310  -1.8272  -1.8231  -1.8170  -1.8160  -1.8136
    -1.8115  -1.8014  -1.8001  -1.7990  -1.7933  -1.7664  -1.7595  -1.7585
    -1.7575  -1.7483  -1.7431  -1.7424  -1.7365  -1.7364  -1.7266  -1.7238
    -1.7062  -1.7047  -1.6988  -1.6979  -1.6880  -1.6744  -1.6701  -1.6657
    -1.6635  -1.6587  -1.6508  -1.6287  -1.6130  -1.6037  -1.5993  -1.5974
    -1.5791  -1.5760  -1.5754  -1.5739  -1.5601  -1.5447  -1.5043  -1.4991
    -1.4926  -1.4880  -1.4800  -1.4791  -1.4706  -1.4672  -1.4598  -1.4580
    -1.4510  -1.4443  -1.4336  -1.4324  -1.4261  -1.4132  -1.4126  -1.4073
    -1.3996  -1.3816  -1.3717  -1.3684  -1.3629  -1.3579  -1.3453  -1.3396
    -1.3277  -1.3256  -1.3218  -1.3073  -1.3025  -1.2977  -1.2932  -1.2873
    -1.2871  -1.2778  -1.2765  -1.2670  -1.2646  -1.2553  -1.2536  -1.2497
    -1.2416  -1.2396  -1.2279  -1.2275  -1.2199  -1.2192  -1.2191  -1.2188
    -1.2153  -1.2087  -1.2059  -1.1779  -1.1766  -1.1706  -1.1565  -1.1554
    -1.1449  -1.1401  -1.1378  -1.1335  -1.1300  -1.1250  -1.1244  -1.1217
    -1.1188  -1.1075  -1.1059  -1.0984  -1.0873  -1.0828  -1.0799  -1.0780
    -1.0771  -1.0757  -1.0724  -1.0628  -1.0579  -1.0549  -1.0536  -1.0508
    -1.0501  -1.0441  -1.0044  -0.9810  -0.9697  -0.9649  -0.9522  -0.9374
    -0.9357  -0.9293  -0.9245  -0.9207  -0.9160  -0.9077  -0.9002  -0.8819
    -0.8780  -0.8614  -0.8300  -0.8281  -0.8260  -0.7658  -0.6681  -0.6316
    -0.6015  -0.5945  -0.5467  -0.4528  -0.3797  -0.1935  -0.1602  -0.1189
    -0.0035   0.0221   0.0573   0.1553   0.1621   0.1919   0.2706   0.2883
     0.3156   0.3347   0.5887   0.5922   0.6431   0.6719   0.7320   0.7783
     0.8027   0.8035   0.9241   0.9707   0.9831   1.1554   1.1640   1.1985
     1.3018   1.3263   1.3633   1.3876   1.4796   1.5213   1.5258   1.7955
     1.8682   1.8791   1.8972   1.9000   1.9101   1.9752   1.9821   2.0315
     2.0616   2.0734   2.1944   2.4011   2.4063   2.4083   2.4469   2.4514
     2.6432   2.6540   2.6776   2.7099   2.7216   2.7962   2.8417   3.1810
     3.2035   3.2179   3.2817   3.3295   3.3642   3.3779   3.5443   3.5475
     3.5700   3.6169   3.6259   3.7993   3.8064   3.8939   3.9030   4.0004
     4.0226   4.1243   4.1804   4.2439   4.2474   4.2704   4.3018   4.3974
     4.4721   4.4974   4.5211   4.5649   4.6630   4.8052   4.8115   4.8411
     4.8498   4.8524   4.8939   4.9670   4.9890   5.0741   5.0907   5.1945
     5.2015   5.2119   5.2381   5.2619   5.3013   5.4403   5.4932   5.5256
     5.5327   5.5331   5.5444   5.6499   5.6730   5.7195   5.7318   5.8368
     5.8523   5.8738   5.8957   5.9063   5.9064   5.9800   5.9913   6.0159
     6.0171   6.0265   6.0328   6.0423   6.0868   6.1382   6.1417   6.1477
     6.1657   6.2222   6.2291   6.3071   6.4016   6.4091   6.4469   6.4474
     6.4738   6.5149   6.5237   6.5725   6.5878   6.6323   6.6406   6.6540
     6.6608   6.6908   6.7354   6.7482   6.7688   6.8236   6.8288   6.9306
     6.9365   6.9722   6.9727   6.9987   7.0275   7.0636   7.1003   7.1088
     7.1284   7.1636   7.1907   7.1919   7.1998   7.2023   7.2796   7.2909
     7.3065   7.3547   7.3592   7.4025   7.4172   7.4339   7.4640   7.5086
     7.5608   7.5676   7.6063   7.6175   7.6581   7.6582   7.6665   7.6694
     7.6930   7.6938   7.7179   7.7229   7.7376   7.7420   7.7924   7.8310
     7.8580   7.8671   7.9401   7.9890   7.9963   8.0016   8.0249   8.0923

     the Fermi energy is     0.7845 ev

!    total energy              =  -11427.09402124 Ry
     Harris-Foulkes estimate   =  -11427.09402179 Ry
     estimated scf accuracy    <       0.00000053 Ry

     The total energy is the sum of the following terms:

     one-electron contribution = -129707.67262331 Ry
     hartree contribution      =   65677.85735445 Ry
     xc contribution           =   -5523.82415967 Ry
     ewald contribution        =   58126.48229571 Ry
     smearing contrib. (-TS)   =       0.06311157 Ry

     convergence has been achieved in  21 iterations

     negative rho (up, down):  3.085E+00 0.000E+00

     Forces acting on atoms (cartesian axes, Ry/au):

     atom    1 type  1   force =    -0.00091897    0.00014853    0.00828817
     atom    2 type  1   force =    -0.00090913   -0.00020518    0.00798913
     atom    3 type  1   force =    -0.00004540    0.00020910    0.00891946
     atom    4 type  1   force =    -0.00004315   -0.00015063    0.00861277
     atom    5 type  1   force =     0.00010388    0.00024041    0.00900237
     atom    6 type  1   force =     0.00010111   -0.00012097    0.00869306
     atom    7 type  1   force =    -0.00015085    0.00022347    0.00897649
     atom    8 type  1   force =    -0.00015360   -0.00013928    0.00866990
     atom    9 type  1   force =    -0.00000617    0.00022283    0.00898311
     atom   10 type  1   force =    -0.00000283   -0.00014062    0.00867625
     atom   11 type  1   force =    -0.00015735    0.00023383    0.00902288
     atom   12 type  1   force =    -0.00015646   -0.00012852    0.00871487
     atom   13 type  1   force =     0.00079621    0.00025758    0.00878204
     atom   14 type  1   force =     0.00079392   -0.00010326    0.00847908
     atom   15 type  1   force =    -0.00123157    0.00045712   -0.00544833
     atom   16 type  1   force =    -0.00122546   -0.00011121   -0.00554613
     atom   17 type  1   force =    -0.00014337    0.00043407   -0.00536789
     atom   18 type  1   force =    -0.00013912   -0.00015471   -0.00546397
     atom   19 type  1   force =     0.00006592    0.00043979   -0.00526340
     atom   20 type  1   force =     0.00006227   -0.00014916   -0.00536354
     atom   21 type  1   force =    -0.00018398    0.00044000   -0.00523999
     atom   22 type  1   force =    -0.00018470   -0.00014259   -0.00534014
     atom   23 type  1   force =     0.00005664    0.00044193   -0.00527671
     atom   24 type  1   force =     0.00005896   -0.00014316   -0.00537725
     atom   25 type  1   force =    -0.00012711    0.00043595   -0.00536011
     atom   26 type  1   force =    -0.00012634   -0.00015094   -0.00545981
     atom   27 type  1   force =     0.00107082    0.00043320   -0.00542871
     atom   28 type  1   force =     0.00106704   -0.00014553   -0.00552513
     atom   29 type  1   force =    -0.00048822   -0.00006364    0.00848824
     atom   30 type  1   force =    -0.00048835   -0.00054128    0.00853720
     atom   31 type  1   force =     0.00003235   -0.00008255    0.00871256
     atom   32 type  1   force =     0.00003088   -0.00056724    0.00876492
     atom   33 type  1   force =     0.00009008   -0.00009330    0.00869014
     atom   34 type  1   force =     0.00008938   -0.00057728    0.00874007
     atom   35 type  1   force =    -0.00009835   -0.00008355    0.00874522
     atom   36 type  1   force =    -0.00009872   -0.00056155    0.00879539
     atom   37 type  1   force =    -0.00020080   -0.00009034    0.00870457
     atom   38 type  1   force =    -0.00020038   -0.00056865    0.00875443
     atom   39 type  1   force =     0.00007575   -0.00009671    0.00872334
     atom   40 type  1   force =     0.00007634   -0.00057476    0.00877456
     atom   41 type  1   force =     0.00094981   -0.00018233    0.00799394
     atom   42 type  1   force =     0.00095389   -0.00064978    0.00804362
     atom   43 type  1   force =    -0.00070068   -0.00007491   -0.00544042
     atom   44 type  1   force =    -0.00070782   -0.00065632   -0.00539839
     atom   45 type  1   force =    -0.00004194   -0.00007572   -0.00534980
     atom   46 type  1   force =    -0.00004365   -0.00065973   -0.00530853
     atom   47 type  1   force =     0.00009462   -0.00006787   -0.00528302
     atom   48 type  1   force =     0.00009940   -0.00065044   -0.00523954
     atom   49 type  1   force =    -0.00008334   -0.00007368   -0.00529168
     atom   50 type  1   force =    -0.00008393   -0.00065305   -0.00525008
     atom   51 type  1   force =    -0.00016445   -0.00007048   -0.00535519
     atom   52 type  1   force =    -0.00016901   -0.00065049   -0.00531155
     atom   53 type  1   force =     0.00015765   -0.00008202   -0.00545241
     atom   54 type  1   force =     0.00016321   -0.00066486   -0.00540800
     atom   55 type  1   force =     0.00123692   -0.00004289   -0.00549910
     atom   56 type  1   force =     0.00124323   -0.00061144   -0.00545526
     atom   57 type  1   force =    -0.00097796    0.00070195   -0.00834928
     atom   58 type  1   force =    -0.00096932    0.00022291   -0.00800164
     atom   59 type  1   force =    -0.00014755    0.00065526   -0.00896763
     atom   60 type  1   force =    -0.00014298    0.00016905   -0.00861359
     atom   61 type  1   force =     0.00006610    0.00062544   -0.00903488
     atom   62 type  1   force =     0.00006769    0.00013871   -0.00867996
     atom   63 type  1   force =    -0.00010412    0.00064044   -0.00900701
     atom   64 type  1   force =    -0.00010631    0.00015699   -0.00865356
     atom   65 type  1   force =     0.00006244    0.00064100   -0.00902115
     atom   66 type  1   force =     0.00006023    0.00015777   -0.00866747
     atom   67 type  1   force =    -0.00009510    0.00063232   -0.00907593
     atom   68 type  1   force =    -0.00009763    0.00014533   -0.00871695
     atom   69 type  1   force =     0.00082802    0.00060692   -0.00884711
     atom   70 type  1   force =     0.00082522    0.00012251   -0.00849741
     atom   71 type  1   force =    -0.00075088    0.00079434    0.00522801
     atom   72 type  1   force =    -0.00074380    0.00019096    0.00540862
     atom   73 type  1   force =    -0.00008459    0.00079884    0.00525007
     atom   74 type  1   force =    -0.00008166    0.00019114    0.00542874
     atom   75 type  1   force =     0.00010766    0.00078852    0.00522118
     atom   76 type  1   force =     0.00010367    0.00018414    0.00539911
     atom   77 type  1   force =    -0.00005371    0.00079260    0.00517960
     atom   78 type  1   force =    -0.00005391    0.00018951    0.00535958
     atom   79 type  1   force =    -0.00014179    0.00078964    0.00517136
     atom   80 type  1   force =    -0.00014121    0.00018658    0.00534865
     atom   81 type  1   force =     0.00018658    0.00080173    0.00520557
     atom   82 type  1   force =     0.00018126    0.00019884    0.00538710
     atom   83 type  1   force =     0.00123739    0.00074752    0.00521818
     atom   84 type  1   force =     0.00122953    0.00015577    0.00539794
     atom   85 type  1   force =    -0.00125742    0.00009213    0.00538831
     atom   86 type  1   force =    -0.00126496   -0.00078942    0.00557516
     atom   87 type  1   force =    -0.00019235    0.00013402    0.00541939
     atom   88 type  1   force =    -0.00019576   -0.00076946    0.00560606
     atom   89 type  1   force =     0.00004842    0.00013052    0.00539218
     atom   90 type  1   force =     0.00005176   -0.00077710    0.00557964
     atom   91 type  1   force =    -0.00016111    0.00012365    0.00536426
     atom   92 type  1   force =    -0.00015872   -0.00078099    0.00554811
     atom   93 type  1   force =     0.00008668    0.00012360    0.00533490
     atom   94 type  1   force =     0.00008467   -0.00078023    0.00552050
     atom   95 type  1   force =    -0.00009732    0.00013095    0.00534790
     atom   96 type  1   force =    -0.00009738   -0.00077066    0.00553272
     atom   97 type  1   force =     0.00107781    0.00012682    0.00535840
     atom   98 type  1   force =     0.00108140   -0.00076915    0.00554439
     atom   99 type  1   force =    -0.00058266    0.00015398   -0.00848115
     atom  100 type  1   force =    -0.00058420   -0.00032878   -0.00854633
     atom  101 type  1   force =    -0.00004552    0.00018263   -0.00869126
     atom  102 type  1   force =    -0.00004527   -0.00031048   -0.00875581
     atom  103 type  1   force =     0.00009808    0.00019323   -0.00866227
     atom  104 type  1   force =     0.00010003   -0.00030311   -0.00872443
     atom  105 type  1   force =    -0.00003595    0.00017725   -0.00871397
     atom  106 type  1   force =    -0.00003537   -0.00031725   -0.00877701
     atom  107 type  1   force =    -0.00013377    0.00018586   -0.00868861
     atom  108 type  1   force =    -0.00013416   -0.00030617   -0.00875169
     atom  109 type  1   force =     0.00012810    0.00018784   -0.00872354
     atom  110 type  1   force =     0.00012755   -0.00029586   -0.00878846
     atom  111 type  1   force =     0.00093752    0.00026766   -0.00799339
     atom  112 type  1   force =     0.00094158   -0.00020341   -0.00805782

     Total force =     0.076635     Total SCF correction =     0.004199

     Writing output data file ./ausurf.save/
 
     init_run     :      9.30s CPU      9.87s WALL (       1 calls)
     electrons    :    529.34s CPU    541.49s WALL (       1 calls)
     forces       :      5.05s CPU      5.27s WALL (       1 calls)

     Called by init_run:
     wfcinit      :      7.57s CPU      7.96s WALL (       1 calls)
     potinit      :      0.22s CPU      0.26s WALL (       1 calls)
     hinit0       :      0.32s CPU      0.34s WALL (       1 calls)

     Called by electrons:
     c_bands      :    478.95s CPU    488.63s WALL (      22 calls)
     sum_band     :     45.04s CPU     46.39s WALL (      22 calls)
     v_of_rho     :      1.66s CPU      1.74s WALL (      22 calls)
     newd         :      3.33s CPU      4.15s WALL (      22 calls)
     mix_rho      :      0.33s CPU      0.34s WALL (      22 calls)

     Called by c_bands:
     init_us_2    :      2.09s CPU      2.11s WALL (      92 calls)
     cegterg      :    471.66s CPU    481.15s WALL (      44 calls)

     Called by sum_band:
     sum_band:bec :      0.57s CPU      0.57s WALL (      44 calls)
     addusdens    :      2.95s CPU      3.84s WALL (      22 calls)

     Called by *egterg:
     h_psi        :    176.18s CPU    178.81s WALL (     212 calls)
     s_psi        :     40.19s CPU     40.59s WALL (     212 calls)
     g_psi        :      0.61s CPU      0.62s WALL (     166 calls)
     cdiaghg      :    123.78s CPU    128.08s WALL (     208 calls)

     Called by h_psi:
     h_psi:calbec :     42.94s CPU     43.03s WALL (     212 calls)
     vloc_psi     :     91.39s CPU     92.94s WALL (     212 calls)
     add_vuspsi   :     40.73s CPU     41.33s WALL (     212 calls)

     General routines
     calbec       :     64.50s CPU     64.62s WALL (     264 calls)
     fft          :      1.34s CPU      1.36s WALL (     296 calls)
     ffts         :      0.08s CPU      0.09s WALL (      44 calls)
     fftw         :    104.36s CPU    106.14s WALL (  197634 calls)
     interpolate  :      0.14s CPU      0.15s WALL (      22 calls)
 
     Parallel routines
     fft_scatt_xy :     10.19s CPU     10.36s WALL (  197974 calls)
     fft_scatt_yz :     61.56s CPU     62.74s WALL (  197974 calls)
 
     PWSCF        :   9m 7.05s CPU  11m 8.92s WALL

 
   This run was terminated on:  11:14: 8  23Jul2020            

=------------------------------------------------------------------------------=
   JOB DONE.
=------------------------------------------------------------------------------=
