
     Program PWSCF v.6.5 starts on 23Jul2020 at 11:51: 2 

     This program is part of the open-source Quantum ESPRESSO suite
     for quantum simulation of materials; please cite
         "P. Giannozzi et al., J. Phys.:Condens. Matter 21 395502 (2009);
         "P. Giannozzi et al., J. Phys.:Condens. Matter 29 465901 (2017);
          URL http://www.quantum-espresso.org", 
     in publications or presentations arising from this work. More details at
     http://www.quantum-espresso.org/quote

     Parallel version (MPI & OpenMP), running on     576 processor cores
     Number of MPI processes:               576
     Threads/MPI process:                     1

     MPI processes distributed on    16 nodes
     R & G space division:  proc/nbgrp/npool/nimage =     576
     Reading input from ausurf.in

     Current dimensions of program PWSCF are:
     Max number of different atomic species (ntypx) = 10
     Max number of k-points (npk) =  40000
     Max angular momentum in pseudopotentials (lmaxx) =  3

     Subspace diagonalization in iterative solution of the eigenvalue problem:
     one sub-group per band group will be used
     scalapack distributed-memory algorithm (size of sub-group: 24* 24 procs)

 
     Parallelization info
     --------------------
     sticks:   dense  smooth     PW     G-vecs:    dense   smooth      PW
     Min          20      10      2                 3732     1316     154
     Max          21      11      3                 3767     1337     197
     Sum       11837    5915   1537              2158381   763307  100747
 

     Title: 
      DEISA pw benchmark                                                        


     bravais-lattice index     =            8
     lattice parameter (alat)  =      38.7583  a.u.
     unit-cell volume          =   45191.4962 (a.u.)^3
     number of atoms/cell      =          112
     number of atomic types    =            1
     number of electrons       =      1232.00
     number of Kohn-Sham states=          800
     kinetic-energy cutoff     =      25.0000  Ry
     charge density cutoff     =     200.0000  Ry
     convergence threshold     =      1.0E-06
     mixing beta               =       0.7000
     number of iterations used =            8  plain     mixing
     Exchange-correlation=  SLA  PW   PBE  PBE
                           (   1   4   3   4   0   0   0)

     celldm(1)=  38.758300  celldm(2)=   0.494393  celldm(3)=   1.569966
     celldm(4)=   0.000000  celldm(5)=   0.000000  celldm(6)=   0.000000

     crystal axes: (cart. coord. in units of alat)
               a(1) = (   1.000000   0.000000   0.000000 )  
               a(2) = (   0.000000   0.494393   0.000000 )  
               a(3) = (   0.000000   0.000000   1.569966 )  

     reciprocal axes: (cart. coord. in units 2 pi/alat)
               b(1) = (  1.000000  0.000000  0.000000 )  
               b(2) = (  0.000000  2.022682  0.000000 )  
               b(3) = (  0.000000  0.000000  0.636956 )  


     PseudoPot. # 1 for Au read from file:
     ./Au.pbe-nd-van.UPF
     MD5 check sum: deb5c07af10777505a79e28f5b4b4115
     Pseudo is Ultrasoft + core correction, Zval = 11.0
     Generated by new atomic code, or converted to UPF format
     Using radial grid of  985 points,  3 beta functions with: 
                l(1) =   1
                l(2) =   2
                l(3) =   2
     Q(r) pseudized with  8 coefficients,  rinner =    1.100   1.100   1.100
                                                       1.100   1.100

     atomic species   valence    mass     pseudopotential
        AU            11.00   196.96000     Au( 1.00)

     No symmetry found



   Cartesian axes

     site n.     atom                  positions (alat units)
         1           AU  tau(   1) = (   1.4278395   1.9784974   0.3497317  )
         2           AU  tau(   2) = (   1.4278395   1.7313987   0.3497317  )
         3           AU  tau(   3) = (   1.5706478   1.9784974   0.3497317  )
         4           AU  tau(   4) = (   1.5706478   1.7313987   0.3497317  )
         5           AU  tau(   5) = (   1.7134072   1.9784974   0.3497317  )
         6           AU  tau(   6) = (   1.7134072   1.7313987   0.3497317  )
         7           AU  tau(   7) = (   1.8562156   1.9784974   0.3497317  )
         8           AU  tau(   8) = (   1.8562156   1.7313987   0.3497317  )
         9           AU  tau(   9) = (   1.9989753   1.9784974   0.3497317  )
        10           AU  tau(  10) = (   1.9989753   1.7313987   0.3497317  )
        11           AU  tau(  11) = (   2.1417836   1.9784974   0.3497317  )
        12           AU  tau(  12) = (   2.1417836   1.7313987   0.3497317  )
        13           AU  tau(  13) = (   2.2845431   1.9784974   0.3497317  )
        14           AU  tau(  14) = (   2.2845431   1.7313987   0.3497317  )
        15           AU  tau(  15) = (   1.4278395   2.0609450   0.2331545  )
        16           AU  tau(  16) = (   1.4278395   1.8138461   0.2331545  )
        17           AU  tau(  17) = (   1.5706478   2.0609450   0.2331545  )
        18           AU  tau(  18) = (   1.5706478   1.8138461   0.2331545  )
        19           AU  tau(  19) = (   1.7134072   2.0609450   0.2331545  )
        20           AU  tau(  20) = (   1.7134072   1.8138461   0.2331545  )
        21           AU  tau(  21) = (   1.8562156   2.0609450   0.2331545  )
        22           AU  tau(  22) = (   1.8562156   1.8138461   0.2331545  )
        23           AU  tau(  23) = (   1.9989753   2.0609450   0.2331545  )
        24           AU  tau(  24) = (   1.9989753   1.8138461   0.2331545  )
        25           AU  tau(  25) = (   2.1417836   2.0609450   0.2331545  )
        26           AU  tau(  26) = (   2.1417836   1.8138461   0.2331545  )
        27           AU  tau(  27) = (   2.2845431   2.0609450   0.2331545  )
        28           AU  tau(  28) = (   2.2845431   1.8138461   0.2331545  )
        29           AU  tau(  29) = (   1.4992193   2.1021445   0.3497317  )
        30           AU  tau(  30) = (   1.4992193   1.8550456   0.3497317  )
        31           AU  tau(  31) = (   1.6420276   2.1021445   0.3497317  )
        32           AU  tau(  32) = (   1.6420276   1.8550456   0.3497317  )
        33           AU  tau(  33) = (   1.7847871   2.1021445   0.3497317  )
        34           AU  tau(  34) = (   1.7847871   1.8550456   0.3497317  )
        35           AU  tau(  35) = (   1.9275954   2.1021445   0.3497317  )
        36           AU  tau(  36) = (   1.9275954   1.8550456   0.3497317  )
        37           AU  tau(  37) = (   2.0704038   2.1021445   0.3497317  )
        38           AU  tau(  38) = (   2.0704038   1.8550456   0.3497317  )
        39           AU  tau(  39) = (   2.2131632   2.1021445   0.3497317  )
        40           AU  tau(  40) = (   2.2131632   1.8550456   0.3497317  )
        41           AU  tau(  41) = (   2.3559716   2.1021445   0.3497317  )
        42           AU  tau(  42) = (   2.3559716   1.8550456   0.3497317  )
        43           AU  tau(  43) = (   1.4992193   1.6901992   0.2331545  )
        44           AU  tau(  44) = (   1.4992193   1.9374930   0.2331545  )
        45           AU  tau(  45) = (   1.6420276   1.6901992   0.2331545  )
        46           AU  tau(  46) = (   1.6420276   1.9374930   0.2331545  )
        47           AU  tau(  47) = (   1.7847871   1.6901992   0.2331545  )
        48           AU  tau(  48) = (   1.7847871   1.9374930   0.2331545  )
        49           AU  tau(  49) = (   1.9275954   1.6901992   0.2331545  )
        50           AU  tau(  50) = (   1.9275954   1.9374930   0.2331545  )
        51           AU  tau(  51) = (   2.0704038   1.6901992   0.2331545  )
        52           AU  tau(  52) = (   2.0704038   1.9374930   0.2331545  )
        53           AU  tau(  53) = (   2.2131632   1.6901992   0.2331545  )
        54           AU  tau(  54) = (   2.2131632   1.9374930   0.2331545  )
        55           AU  tau(  55) = (   2.3559716   1.6901992   0.2331545  )
        56           AU  tau(  56) = (   2.3559716   1.9374930   0.2331545  )
        57           AU  tau(  57) = (   1.4278395   1.9784974   0.0000000  )
        58           AU  tau(  58) = (   1.4278395   1.7313987   0.0000000  )
        59           AU  tau(  59) = (   1.5706478   1.9784974   0.0000000  )
        60           AU  tau(  60) = (   1.5706478   1.7313987   0.0000000  )
        61           AU  tau(  61) = (   1.7134072   1.9784974   0.0000000  )
        62           AU  tau(  62) = (   1.7134072   1.7313987   0.0000000  )
        63           AU  tau(  63) = (   1.8562156   1.9784974   0.0000000  )
        64           AU  tau(  64) = (   1.8562156   1.7313987   0.0000000  )
        65           AU  tau(  65) = (   1.9989753   1.9784974   0.0000000  )
        66           AU  tau(  66) = (   1.9989753   1.7313987   0.0000000  )
        67           AU  tau(  67) = (   2.1417836   1.9784974   0.0000000  )
        68           AU  tau(  68) = (   2.1417836   1.7313987   0.0000000  )
        69           AU  tau(  69) = (   2.2845431   1.9784974   0.0000000  )
        70           AU  tau(  70) = (   2.2845431   1.7313987   0.0000000  )
        71           AU  tau(  71) = (   1.4992193   2.0196968   0.1165772  )
        72           AU  tau(  72) = (   1.4992193   1.7725979   0.1165772  )
        73           AU  tau(  73) = (   1.6420276   2.0196968   0.1165772  )
        74           AU  tau(  74) = (   1.6420276   1.7725979   0.1165772  )
        75           AU  tau(  75) = (   1.7847871   2.0196968   0.1165772  )
        76           AU  tau(  76) = (   1.7847871   1.7725979   0.1165772  )
        77           AU  tau(  77) = (   1.9275954   2.0196968   0.1165772  )
        78           AU  tau(  78) = (   1.9275954   1.7725979   0.1165772  )
        79           AU  tau(  79) = (   2.0704038   2.0196968   0.1165772  )
        80           AU  tau(  80) = (   2.0704038   1.7725979   0.1165772  )
        81           AU  tau(  81) = (   2.2131632   2.0196968   0.1165772  )
        82           AU  tau(  82) = (   2.2131632   1.7725979   0.1165772  )
        83           AU  tau(  83) = (   2.3559716   2.0196968   0.1165772  )
        84           AU  tau(  84) = (   2.3559716   1.7725979   0.1165772  )
        85           AU  tau(  85) = (   1.4278395   2.1433437   0.1165772  )
        86           AU  tau(  86) = (   1.4278395   1.8962938   0.1165772  )
        87           AU  tau(  87) = (   1.5706478   2.1433437   0.1165772  )
        88           AU  tau(  88) = (   1.5706478   1.8962938   0.1165772  )
        89           AU  tau(  89) = (   1.7134072   2.1433437   0.1165772  )
        90           AU  tau(  90) = (   1.7134072   1.8962938   0.1165772  )
        91           AU  tau(  91) = (   1.8562156   2.1433437   0.1165772  )
        92           AU  tau(  92) = (   1.8562156   1.8962938   0.1165772  )
        93           AU  tau(  93) = (   1.9989753   2.1433437   0.1165772  )
        94           AU  tau(  94) = (   1.9989753   1.8962938   0.1165772  )
        95           AU  tau(  95) = (   2.1417836   2.1433437   0.1165772  )
        96           AU  tau(  96) = (   2.1417836   1.8962938   0.1165772  )
        97           AU  tau(  97) = (   2.2845431   2.1433437   0.1165772  )
        98           AU  tau(  98) = (   2.2845431   1.8962938   0.1165772  )
        99           AU  tau(  99) = (   1.4992193   2.1021445   0.0000000  )
       100           AU  tau( 100) = (   1.4992193   1.8550456   0.0000000  )
       101           AU  tau( 101) = (   1.6420276   2.1021445   0.0000000  )
       102           AU  tau( 102) = (   1.6420276   1.8550456   0.0000000  )
       103           AU  tau( 103) = (   1.7847871   2.1021445   0.0000000  )
       104           AU  tau( 104) = (   1.7847871   1.8550456   0.0000000  )
       105           AU  tau( 105) = (   1.9275954   2.1021445   0.0000000  )
       106           AU  tau( 106) = (   1.9275954   1.8550456   0.0000000  )
       107           AU  tau( 107) = (   2.0704038   2.1021445   0.0000000  )
       108           AU  tau( 108) = (   2.0704038   1.8550456   0.0000000  )
       109           AU  tau( 109) = (   2.2131632   2.1021445   0.0000000  )
       110           AU  tau( 110) = (   2.2131632   1.8550456   0.0000000  )
       111           AU  tau( 111) = (   2.3559716   2.1021445   0.0000000  )
       112           AU  tau( 112) = (   2.3559716   1.8550456   0.0000000  )

     number of k points=     2  Marzari-Vanderbilt smearing, width (Ry)=  0.0500
                       cart. coord. in units 2pi/alat
        k(    1) = (   0.2500000   0.5056706   0.0000000), wk =   1.0000000
        k(    2) = (  -0.2500000   0.5056706   0.0000000), wk =   1.0000000

     Dense  grid:  2158381 G-vectors     FFT dimensions: ( 180,  90, 288)

     Smooth grid:   763307 G-vectors     FFT dimensions: ( 125,  64, 200)

     Estimated max dynamical RAM per process >      57.11 MB

     Estimated total dynamical RAM >      32.13 GB

     Initial potential from superposition of free atoms

     starting charge 1230.69946, renormalised to 1232.00000

     negative rho (up, down):  3.043E+00 0.000E+00
     Starting wfcs are 1008 randomized atomic wfcs

     total cpu time spent up to now is        7.1 secs

     Self-consistent Calculation

     iteration #  1     ecut=    25.00 Ry     beta= 0.70
     Davidson diagonalization with overlap
     ethr =  1.00E-02,  avg # of iterations =  6.5

     Threshold (ethr) on eigenvalues was too large:
     Diagonalizing with lowered threshold

     Davidson diagonalization with overlap
     ethr =  4.46E-04,  avg # of iterations =  4.5

     negative rho (up, down):  2.992E+00 0.000E+00

     total cpu time spent up to now is       38.2 secs

     total energy              =  -11423.49664775 Ry
     Harris-Foulkes estimate   =  -11428.44878344 Ry
     estimated scf accuracy    <       6.31734881 Ry

     iteration #  2     ecut=    25.00 Ry     beta= 0.70
     Davidson diagonalization with overlap
     ethr =  5.13E-04,  avg # of iterations = 11.0

     negative rho (up, down):  2.994E+00 0.000E+00

     total cpu time spent up to now is       72.3 secs

     total energy              =  -11408.22185814 Ry
     Harris-Foulkes estimate   =  -11440.28784491 Ry
     estimated scf accuracy    <     197.30220831 Ry

     iteration #  3     ecut=    25.00 Ry     beta= 0.70
     Davidson diagonalization with overlap
     ethr =  5.13E-04,  avg # of iterations =  6.0

     negative rho (up, down):  3.039E+00 0.000E+00

     total cpu time spent up to now is      101.2 secs

     total energy              =  -11426.39866767 Ry
     Harris-Foulkes estimate   =  -11427.97868752 Ry
     estimated scf accuracy    <       5.27215158 Ry

     iteration #  4     ecut=    25.00 Ry     beta= 0.70
     Davidson diagonalization with overlap
     ethr =  4.28E-04,  avg # of iterations =  3.0

     negative rho (up, down):  3.046E+00 0.000E+00

     total cpu time spent up to now is      120.8 secs

     total energy              =  -11426.62531769 Ry
     Harris-Foulkes estimate   =  -11427.34639570 Ry
     estimated scf accuracy    <       4.21983520 Ry

     iteration #  5     ecut=    25.00 Ry     beta= 0.70
     Davidson diagonalization with overlap
     ethr =  3.43E-04,  avg # of iterations =  4.0

     negative rho (up, down):  3.061E+00 0.000E+00

     total cpu time spent up to now is      133.5 secs

     total energy              =  -11426.86689180 Ry
     Harris-Foulkes estimate   =  -11427.36540653 Ry
     estimated scf accuracy    <       4.88399436 Ry

     iteration #  6     ecut=    25.00 Ry     beta= 0.70
     Davidson diagonalization with overlap
     ethr =  3.43E-04,  avg # of iterations =  1.0

     negative rho (up, down):  3.070E+00 0.000E+00

     total cpu time spent up to now is      142.5 secs

     total energy              =  -11427.08106420 Ry
     Harris-Foulkes estimate   =  -11427.10060829 Ry
     estimated scf accuracy    <       0.08467670 Ry

     iteration #  7     ecut=    25.00 Ry     beta= 0.70
     Davidson diagonalization with overlap
     ethr =  6.87E-06,  avg # of iterations = 11.0

     negative rho (up, down):  3.079E+00 0.000E+00

     total cpu time spent up to now is      171.1 secs

     total energy              =  -11427.07223184 Ry
     Harris-Foulkes estimate   =  -11427.11707690 Ry
     estimated scf accuracy    <       0.21787609 Ry

     iteration #  8     ecut=    25.00 Ry     beta= 0.70
     Davidson diagonalization with overlap
     ethr =  6.87E-06,  avg # of iterations =  8.0

     negative rho (up, down):  3.080E+00 0.000E+00

     total cpu time spent up to now is      190.1 secs

     total energy              =  -11427.08596558 Ry
     Harris-Foulkes estimate   =  -11427.10084095 Ry
     estimated scf accuracy    <       0.16930806 Ry

     iteration #  9     ecut=    25.00 Ry     beta= 0.70
     Davidson diagonalization with overlap
     ethr =  6.87E-06,  avg # of iterations =  4.0

     negative rho (up, down):  3.082E+00 0.000E+00

     total cpu time spent up to now is      203.1 secs

     total energy              =  -11427.09325983 Ry
     Harris-Foulkes estimate   =  -11427.09470385 Ry
     estimated scf accuracy    <       0.00902661 Ry

     iteration # 10     ecut=    25.00 Ry     beta= 0.70
     Davidson diagonalization with overlap
     ethr =  7.33E-07,  avg # of iterations =  4.0

     negative rho (up, down):  3.083E+00 0.000E+00

     total cpu time spent up to now is      216.0 secs

     total energy              =  -11427.09340785 Ry
     Harris-Foulkes estimate   =  -11427.09457469 Ry
     estimated scf accuracy    <       0.00476041 Ry

     iteration # 11     ecut=    25.00 Ry     beta= 0.70
     Davidson diagonalization with overlap
     ethr =  3.86E-07,  avg # of iterations =  2.0

     negative rho (up, down):  3.083E+00 0.000E+00

     total cpu time spent up to now is      227.4 secs

     total energy              =  -11427.09372287 Ry
     Harris-Foulkes estimate   =  -11427.09418967 Ry
     estimated scf accuracy    <       0.00214254 Ry

     iteration # 12     ecut=    25.00 Ry     beta= 0.70
     Davidson diagonalization with overlap
     ethr =  1.74E-07,  avg # of iterations =  1.0

     negative rho (up, down):  3.083E+00 0.000E+00

     total cpu time spent up to now is      236.4 secs

     total energy              =  -11427.09385949 Ry
     Harris-Foulkes estimate   =  -11427.09411254 Ry
     estimated scf accuracy    <       0.00152570 Ry

     iteration # 13     ecut=    25.00 Ry     beta= 0.70
     Davidson diagonalization with overlap
     ethr =  1.24E-07,  avg # of iterations =  1.0

     negative rho (up, down):  3.084E+00 0.000E+00

     total cpu time spent up to now is      245.6 secs

     total energy              =  -11427.09379591 Ry
     Harris-Foulkes estimate   =  -11427.09421785 Ry
     estimated scf accuracy    <       0.00404264 Ry

     iteration # 14     ecut=    25.00 Ry     beta= 0.70
     Davidson diagonalization with overlap
     ethr =  1.24E-07,  avg # of iterations =  1.0

     negative rho (up, down):  3.084E+00 0.000E+00

     total cpu time spent up to now is      254.5 secs

     total energy              =  -11427.09397698 Ry
     Harris-Foulkes estimate   =  -11427.09405157 Ry
     estimated scf accuracy    <       0.00027894 Ry

     iteration # 15     ecut=    25.00 Ry     beta= 0.70
     Davidson diagonalization with overlap
     ethr =  2.26E-08,  avg # of iterations =  2.0

     negative rho (up, down):  3.084E+00 0.000E+00

     total cpu time spent up to now is      264.9 secs

     total energy              =  -11427.09397590 Ry
     Harris-Foulkes estimate   =  -11427.09405900 Ry
     estimated scf accuracy    <       0.00083063 Ry

     iteration # 16     ecut=    25.00 Ry     beta= 0.70
     Davidson diagonalization with overlap
     ethr =  2.26E-08,  avg # of iterations =  1.0

     negative rho (up, down):  3.084E+00 0.000E+00

     total cpu time spent up to now is      273.9 secs

     total energy              =  -11427.09401560 Ry
     Harris-Foulkes estimate   =  -11427.09402665 Ry
     estimated scf accuracy    <       0.00005670 Ry

     iteration # 17     ecut=    25.00 Ry     beta= 0.70
     Davidson diagonalization with overlap
     ethr =  4.60E-09,  avg # of iterations =  2.0

     negative rho (up, down):  3.085E+00 0.000E+00

     total cpu time spent up to now is      284.2 secs

     total energy              =  -11427.09401976 Ry
     Harris-Foulkes estimate   =  -11427.09402328 Ry
     estimated scf accuracy    <       0.00001324 Ry

     iteration # 18     ecut=    25.00 Ry     beta= 0.70
     Davidson diagonalization with overlap
     ethr =  1.07E-09,  avg # of iterations =  2.0

     negative rho (up, down):  3.085E+00 0.000E+00

     total cpu time spent up to now is      294.6 secs

     total energy              =  -11427.09402080 Ry
     Harris-Foulkes estimate   =  -11427.09402227 Ry
     estimated scf accuracy    <       0.00000482 Ry

     iteration # 19     ecut=    25.00 Ry     beta= 0.70
     Davidson diagonalization with overlap
     ethr =  3.91E-10,  avg # of iterations =  2.0

     negative rho (up, down):  3.085E+00 0.000E+00

     total cpu time spent up to now is      304.9 secs

     total energy              =  -11427.09401922 Ry
     Harris-Foulkes estimate   =  -11427.09402407 Ry
     estimated scf accuracy    <       0.00005848 Ry

     iteration # 20     ecut=    25.00 Ry     beta= 0.70
     Davidson diagonalization with overlap
     ethr =  3.91E-10,  avg # of iterations =  2.0

     negative rho (up, down):  3.085E+00 0.000E+00

     total cpu time spent up to now is      315.0 secs

     total energy              =  -11427.09402156 Ry
     Harris-Foulkes estimate   =  -11427.09402189 Ry
     estimated scf accuracy    <       0.00000147 Ry

     iteration # 21     ecut=    25.00 Ry     beta= 0.70
     Davidson diagonalization with overlap
     ethr =  1.19E-10,  avg # of iterations =  2.0

     negative rho (up, down):  3.085E+00 0.000E+00

     total cpu time spent up to now is      325.2 secs

     End of self-consistent calculation

          k = 0.2500 0.5057 0.0000 ( 95386 PWs)   bands (ev):

    -8.0048  -7.7854  -7.3695  -7.1564  -6.9589  -6.8865  -6.8075  -6.6747
    -6.6109  -6.2900  -6.2194  -6.1890  -6.1051  -6.0374  -5.9302  -5.9279
    -5.8888  -5.8391  -5.8310  -5.8250  -5.7939  -5.7361  -5.7240  -5.6815
    -5.6675  -5.6495  -5.6454  -5.6402  -5.5498  -5.5384  -5.5309  -5.5227
    -5.5164  -5.5073  -5.4892  -5.4812  -5.4630  -5.4595  -5.4282  -5.3752
    -5.3690  -5.3537  -5.3515  -5.3171  -5.3099  -5.2939  -5.2913  -5.2337
    -5.2327  -5.2327  -5.2282  -5.2184  -5.1997  -5.1786  -5.1554  -5.1447
    -5.1298  -5.1244  -5.1157  -5.1141  -5.1105  -5.1092  -5.0881  -5.0675
    -5.0647  -5.0570  -5.0560  -5.0489  -5.0407  -5.0377  -5.0304  -4.9878
    -4.9820  -4.9669  -4.9638  -4.9481  -4.9343  -4.9324  -4.9289  -4.9268
    -4.9176  -4.9160  -4.9069  -4.9039  -4.8858  -4.8854  -4.8817  -4.8719
    -4.8719  -4.8621  -4.8596  -4.8487  -4.8280  -4.8270  -4.8247  -4.8221
    -4.7418  -4.7393  -4.7376  -4.7368  -4.7329  -4.7255  -4.7211  -4.7209
    -4.7202  -4.7120  -4.6995  -4.6848  -4.6742  -4.6165  -4.6001  -4.5970
    -4.5933  -4.5850  -4.5624  -4.5610  -4.5574  -4.5268  -4.4706  -4.4695
    -4.4509  -4.4138  -4.3979  -4.3951  -4.3935  -4.3932  -4.3917  -4.3854
    -4.3553  -4.3457  -4.3451  -4.3370  -4.3256  -4.3229  -4.3201  -4.3036
    -4.3021  -4.2738  -4.2644  -4.2573  -4.2477  -4.2452  -4.2294  -4.2105
    -4.1938  -4.1679  -4.1561  -4.1550  -4.1545  -4.1531  -4.1482  -4.1395
    -4.1373  -4.1044  -4.0972  -4.0834  -4.0774  -4.0762  -4.0698  -4.0544
    -4.0505  -4.0353  -4.0306  -4.0240  -4.0213  -4.0172  -4.0084  -3.9939
    -3.9867  -3.9707  -3.9586  -3.9275  -3.9140  -3.8985  -3.8931  -3.8896
    -3.8709  -3.8707  -3.8611  -3.8373  -3.8365  -3.8329  -3.8164  -3.8084
    -3.7859  -3.7801  -3.7391  -3.7357  -3.7264  -3.7241  -3.7149  -3.7101
    -3.7009  -3.6852  -3.6807  -3.6711  -3.6589  -3.6404  -3.6192  -3.6191
    -3.6172  -3.6162  -3.6055  -3.6018  -3.5990  -3.5951  -3.5916  -3.5796
    -3.5698  -3.5670  -3.5645  -3.5595  -3.5575  -3.5508  -3.5458  -3.5448
    -3.5435  -3.5342  -3.5235  -3.4922  -3.4822  -3.4563  -3.4539  -3.4429
    -3.4425  -3.4404  -3.4392  -3.4260  -3.4213  -3.4127  -3.4051  -3.3969
    -3.3878  -3.3797  -3.3740  -3.3719  -3.3703  -3.3695  -3.3643  -3.3562
    -3.3525  -3.3373  -3.3356  -3.3268  -3.3261  -3.3243  -3.3199  -3.3171
    -3.3133  -3.3129  -3.3091  -3.3086  -3.2996  -3.2969  -3.2919  -3.2860
    -3.2813  -3.2794  -3.2590  -3.2497  -3.2467  -3.2437  -3.2381  -3.2288
    -3.2196  -3.2188  -3.2141  -3.2102  -3.2021  -3.1997  -3.1889  -3.1805
    -3.1789  -3.1732  -3.1721  -3.1684  -3.1668  -3.1592  -3.1580  -3.1458
    -3.1456  -3.1216  -3.1212  -3.1105  -3.0982  -3.0906  -3.0843  -3.0579
    -3.0413  -3.0400  -3.0344  -3.0332  -3.0262  -3.0239  -3.0230  -3.0181
    -3.0172  -3.0163  -3.0155  -3.0091  -3.0024  -3.0014  -2.9893  -2.9848
    -2.9818  -2.9808  -2.9800  -2.9749  -2.9749  -2.9710  -2.9686  -2.9508
    -2.9150  -2.9130  -2.8900  -2.8758  -2.8741  -2.8623  -2.8597  -2.8493
    -2.8475  -2.8280  -2.8220  -2.8204  -2.7996  -2.7962  -2.7955  -2.7830
    -2.7796  -2.7753  -2.7673  -2.7640  -2.7502  -2.7491  -2.7468  -2.7421
    -2.7232  -2.7224  -2.7206  -2.7179  -2.6628  -2.6543  -2.6461  -2.6366
    -2.6295  -2.6261  -2.6215  -2.5955  -2.5801  -2.5697  -2.5673  -2.5669
    -2.5635  -2.5590  -2.5530  -2.5408  -2.5281  -2.5252  -2.5194  -2.5160
    -2.5090  -2.5071  -2.5011  -2.4928  -2.4899  -2.4862  -2.4804  -2.4792
    -2.4731  -2.4723  -2.4665  -2.4656  -2.4598  -2.4490  -2.4353  -2.4347
    -2.4064  -2.4001  -2.3982  -2.3743  -2.3702  -2.3632  -2.3558  -2.3558
    -2.3487  -2.3452  -2.3356  -2.3324  -2.3153  -2.3003  -2.2928  -2.2719
    -2.2685  -2.2667  -2.2637  -2.2488  -2.2432  -2.2335  -2.2317  -2.2150
    -2.2126  -2.2054  -2.2052  -2.1979  -2.1970  -2.1782  -2.1448  -2.1361
    -2.1304  -2.1058  -2.1023  -2.0847  -2.0674  -2.0484  -2.0475  -2.0441
    -2.0373  -2.0319  -2.0023  -1.9983  -1.9948  -1.9640  -1.9606  -1.9572
    -1.9560  -1.9519  -1.9480  -1.9453  -1.9393  -1.9387  -1.9369  -1.9308
    -1.9299  -1.9275  -1.9170  -1.9122  -1.9078  -1.9020  -1.8646  -1.8556
    -1.8550  -1.8385  -1.8310  -1.8273  -1.8232  -1.8170  -1.8161  -1.8136
    -1.8115  -1.8014  -1.8001  -1.7990  -1.7934  -1.7665  -1.7596  -1.7585
    -1.7575  -1.7483  -1.7432  -1.7425  -1.7365  -1.7365  -1.7266  -1.7238
    -1.7062  -1.7047  -1.6988  -1.6979  -1.6880  -1.6744  -1.6702  -1.6658
    -1.6635  -1.6587  -1.6508  -1.6287  -1.6130  -1.6038  -1.5993  -1.5974
    -1.5791  -1.5760  -1.5754  -1.5740  -1.5601  -1.5447  -1.5043  -1.4991
    -1.4926  -1.4880  -1.4800  -1.4791  -1.4706  -1.4673  -1.4598  -1.4580
    -1.4511  -1.4444  -1.4336  -1.4324  -1.4261  -1.4132  -1.4126  -1.4073
    -1.3996  -1.3816  -1.3717  -1.3684  -1.3629  -1.3579  -1.3454  -1.3396
    -1.3277  -1.3256  -1.3218  -1.3073  -1.3026  -1.2977  -1.2932  -1.2873
    -1.2871  -1.2778  -1.2765  -1.2670  -1.2646  -1.2554  -1.2536  -1.2497
    -1.2416  -1.2397  -1.2279  -1.2276  -1.2199  -1.2193  -1.2191  -1.2189
    -1.2153  -1.2088  -1.2059  -1.1779  -1.1767  -1.1706  -1.1565  -1.1554
    -1.1449  -1.1401  -1.1379  -1.1335  -1.1300  -1.1250  -1.1245  -1.1217
    -1.1189  -1.1076  -1.1059  -1.0985  -1.0874  -1.0828  -1.0800  -1.0780
    -1.0772  -1.0757  -1.0724  -1.0628  -1.0579  -1.0549  -1.0537  -1.0508
    -1.0501  -1.0442  -1.0044  -0.9811  -0.9697  -0.9649  -0.9522  -0.9372
    -0.9359  -0.9293  -0.9245  -0.9208  -0.9161  -0.9077  -0.9003  -0.8820
    -0.8780  -0.8614  -0.8300  -0.8281  -0.8260  -0.7659  -0.6681  -0.6317
    -0.6016  -0.5945  -0.5467  -0.4528  -0.3797  -0.1936  -0.1602  -0.1189
    -0.0036   0.0221   0.0573   0.1553   0.1620   0.1919   0.2706   0.2882
     0.3155   0.3346   0.5887   0.5921   0.6430   0.6718   0.7319   0.7783
     0.8027   0.8035   0.9241   0.9706   0.9831   1.1553   1.1639   1.1985
     1.3018   1.3262   1.3633   1.3875   1.4796   1.5213   1.5257   1.7954
     1.8682   1.8791   1.8972   1.8999   1.9100   1.9752   1.9821   2.0315
     2.0616   2.0733   2.1943   2.4010   2.4063   2.4083   2.4468   2.4514
     2.6432   2.6540   2.6776   2.7098   2.7216   2.7962   2.8416   3.1810
     3.2035   3.2179   3.2817   3.3295   3.3641   3.3778   3.5443   3.5475
     3.5700   3.6169   3.6259   3.7992   3.8064   3.8938   3.9030   4.0004
     4.0226   4.1243   4.1804   4.2439   4.2474   4.2704   4.3018   4.3974
     4.4721   4.4974   4.5211   4.5649   4.6630   4.8052   4.8115   4.8410
     4.8498   4.8523   4.8939   4.9670   4.9890   5.0741   5.0907   5.1945
     5.2015   5.2118   5.2380   5.2618   5.3013   5.4403   5.4932   5.5255
     5.5326   5.5331   5.5444   5.6498   5.6730   5.7195   5.7318   5.8368
     5.8522   5.8738   5.8957   5.9063   5.9064   5.9800   5.9912   6.0159
     6.0171   6.0265   6.0328   6.0422   6.0869   6.1382   6.1418   6.1477
     6.1657   6.2222   6.2291   6.3071   6.4016   6.4091   6.4469   6.4473
     6.4738   6.5148   6.5237   6.5725   6.5878   6.6322   6.6406   6.6540
     6.6608   6.6908   6.7353   6.7482   6.7688   6.8237   6.8288   6.9306
     6.9365   6.9722   6.9727   6.9987   7.0275   7.0636   7.1003   7.1088
     7.1284   7.1636   7.1906   7.1919   7.1998   7.2023   7.2795   7.2909
     7.3065   7.3547   7.3591   7.4025   7.4172   7.4339   7.4641   7.5086
     7.5608   7.5675   7.6062   7.6175   7.6581   7.6582   7.6665   7.6693
     7.6930   7.6938   7.7179   7.7229   7.7376   7.7420   7.7924   7.8309
     7.8580   7.8671   7.9401   7.9892   7.9963   8.0016   8.0249   8.0923

          k =-0.2500 0.5057 0.0000 ( 95386 PWs)   bands (ev):

    -8.0048  -7.7854  -7.3695  -7.1564  -6.9589  -6.8865  -6.8075  -6.6747
    -6.6109  -6.2900  -6.2194  -6.1890  -6.1051  -6.0374  -5.9302  -5.9279
    -5.8888  -5.8391  -5.8310  -5.8250  -5.7939  -5.7361  -5.7240  -5.6815
    -5.6675  -5.6495  -5.6454  -5.6402  -5.5498  -5.5384  -5.5309  -5.5227
    -5.5164  -5.5073  -5.4892  -5.4812  -5.4630  -5.4595  -5.4282  -5.3752
    -5.3690  -5.3537  -5.3515  -5.3171  -5.3099  -5.2939  -5.2913  -5.2337
    -5.2327  -5.2327  -5.2282  -5.2184  -5.1997  -5.1786  -5.1554  -5.1447
    -5.1298  -5.1244  -5.1157  -5.1141  -5.1106  -5.1092  -5.0881  -5.0675
    -5.0647  -5.0570  -5.0560  -5.0489  -5.0407  -5.0377  -5.0304  -4.9878
    -4.9820  -4.9669  -4.9638  -4.9481  -4.9343  -4.9324  -4.9289  -4.9268
    -4.9176  -4.9160  -4.9069  -4.9039  -4.8858  -4.8854  -4.8817  -4.8719
    -4.8719  -4.8621  -4.8596  -4.8487  -4.8280  -4.8270  -4.8247  -4.8221
    -4.7418  -4.7393  -4.7376  -4.7368  -4.7329  -4.7255  -4.7212  -4.7208
    -4.7202  -4.7120  -4.6995  -4.6848  -4.6742  -4.6165  -4.6001  -4.5970
    -4.5933  -4.5850  -4.5624  -4.5610  -4.5574  -4.5268  -4.4706  -4.4695
    -4.4509  -4.4138  -4.3979  -4.3951  -4.3935  -4.3932  -4.3917  -4.3854
    -4.3553  -4.3456  -4.3451  -4.3371  -4.3256  -4.3229  -4.3201  -4.3036
    -4.3021  -4.2738  -4.2644  -4.2573  -4.2477  -4.2452  -4.2294  -4.2105
    -4.1938  -4.1679  -4.1561  -4.1550  -4.1545  -4.1530  -4.1482  -4.1395
    -4.1373  -4.1044  -4.0972  -4.0834  -4.0774  -4.0762  -4.0698  -4.0544
    -4.0505  -4.0353  -4.0306  -4.0240  -4.0213  -4.0172  -4.0084  -3.9939
    -3.9867  -3.9707  -3.9586  -3.9275  -3.9140  -3.8985  -3.8931  -3.8896
    -3.8709  -3.8707  -3.8611  -3.8373  -3.8365  -3.8329  -3.8164  -3.8084
    -3.7859  -3.7801  -3.7391  -3.7357  -3.7264  -3.7241  -3.7149  -3.7101
    -3.7009  -3.6852  -3.6807  -3.6711  -3.6589  -3.6404  -3.6192  -3.6191
    -3.6172  -3.6162  -3.6055  -3.6018  -3.5990  -3.5951  -3.5916  -3.5796
    -3.5698  -3.5670  -3.5645  -3.5595  -3.5575  -3.5508  -3.5458  -3.5448
    -3.5435  -3.5342  -3.5235  -3.4922  -3.4822  -3.4563  -3.4539  -3.4429
    -3.4425  -3.4404  -3.4392  -3.4260  -3.4213  -3.4127  -3.4050  -3.3969
    -3.3878  -3.3797  -3.3740  -3.3719  -3.3703  -3.3695  -3.3643  -3.3562
    -3.3525  -3.3373  -3.3356  -3.3268  -3.3260  -3.3244  -3.3199  -3.3171
    -3.3133  -3.3129  -3.3091  -3.3086  -3.2996  -3.2969  -3.2919  -3.2860
    -3.2814  -3.2794  -3.2590  -3.2497  -3.2467  -3.2437  -3.2381  -3.2288
    -3.2196  -3.2188  -3.2142  -3.2102  -3.2021  -3.1997  -3.1889  -3.1805
    -3.1789  -3.1732  -3.1721  -3.1684  -3.1668  -3.1592  -3.1580  -3.1458
    -3.1456  -3.1216  -3.1212  -3.1105  -3.0982  -3.0906  -3.0843  -3.0579
    -3.0413  -3.0399  -3.0344  -3.0332  -3.0262  -3.0239  -3.0231  -3.0180
    -3.0173  -3.0163  -3.0155  -3.0091  -3.0024  -3.0014  -2.9893  -2.9849
    -2.9818  -2.9806  -2.9800  -2.9750  -2.9749  -2.9710  -2.9686  -2.9508
    -2.9150  -2.9130  -2.8900  -2.8758  -2.8741  -2.8623  -2.8597  -2.8493
    -2.8475  -2.8280  -2.8220  -2.8204  -2.7996  -2.7962  -2.7955  -2.7830
    -2.7796  -2.7753  -2.7673  -2.7640  -2.7502  -2.7491  -2.7468  -2.7421
    -2.7232  -2.7225  -2.7206  -2.7179  -2.6628  -2.6543  -2.6461  -2.6366
    -2.6295  -2.6261  -2.6215  -2.5955  -2.5801  -2.5697  -2.5674  -2.5669
    -2.5635  -2.5590  -2.5531  -2.5408  -2.5280  -2.5252  -2.5194  -2.5161
    -2.5089  -2.5071  -2.5011  -2.4928  -2.4899  -2.4862  -2.4804  -2.4792
    -2.4731  -2.4723  -2.4665  -2.4656  -2.4598  -2.4490  -2.4353  -2.4347
    -2.4064  -2.4001  -2.3982  -2.3743  -2.3702  -2.3632  -2.3559  -2.3558
    -2.3487  -2.3452  -2.3356  -2.3324  -2.3153  -2.3003  -2.2928  -2.2719
    -2.2685  -2.2667  -2.2637  -2.2488  -2.2432  -2.2335  -2.2316  -2.2150
    -2.2126  -2.2054  -2.2052  -2.1978  -2.1970  -2.1782  -2.1448  -2.1361
    -2.1304  -2.1058  -2.1023  -2.0847  -2.0674  -2.0484  -2.0475  -2.0441
    -2.0373  -2.0319  -2.0023  -1.9983  -1.9948  -1.9640  -1.9606  -1.9572
    -1.9560  -1.9519  -1.9480  -1.9453  -1.9393  -1.9387  -1.9369  -1.9309
    -1.9299  -1.9275  -1.9170  -1.9122  -1.9078  -1.9020  -1.8646  -1.8556
    -1.8550  -1.8385  -1.8310  -1.8273  -1.8232  -1.8170  -1.8161  -1.8136
    -1.8115  -1.8014  -1.8001  -1.7990  -1.7934  -1.7665  -1.7596  -1.7585
    -1.7575  -1.7483  -1.7432  -1.7425  -1.7365  -1.7365  -1.7266  -1.7238
    -1.7062  -1.7047  -1.6988  -1.6979  -1.6880  -1.6744  -1.6702  -1.6658
    -1.6635  -1.6587  -1.6508  -1.6287  -1.6130  -1.6038  -1.5993  -1.5974
    -1.5791  -1.5760  -1.5754  -1.5740  -1.5601  -1.5447  -1.5043  -1.4991
    -1.4926  -1.4880  -1.4800  -1.4791  -1.4706  -1.4673  -1.4598  -1.4580
    -1.4511  -1.4444  -1.4336  -1.4324  -1.4261  -1.4132  -1.4126  -1.4073
    -1.3996  -1.3817  -1.3717  -1.3684  -1.3629  -1.3579  -1.3453  -1.3396
    -1.3277  -1.3256  -1.3218  -1.3073  -1.3026  -1.2977  -1.2932  -1.2873
    -1.2871  -1.2778  -1.2765  -1.2670  -1.2646  -1.2554  -1.2536  -1.2497
    -1.2416  -1.2397  -1.2279  -1.2276  -1.2199  -1.2193  -1.2191  -1.2189
    -1.2153  -1.2088  -1.2059  -1.1779  -1.1767  -1.1706  -1.1565  -1.1554
    -1.1449  -1.1401  -1.1379  -1.1335  -1.1300  -1.1250  -1.1245  -1.1217
    -1.1189  -1.1076  -1.1059  -1.0985  -1.0874  -1.0828  -1.0800  -1.0780
    -1.0772  -1.0757  -1.0724  -1.0628  -1.0579  -1.0549  -1.0537  -1.0508
    -1.0501  -1.0442  -1.0044  -0.9811  -0.9697  -0.9649  -0.9522  -0.9374
    -0.9357  -0.9293  -0.9245  -0.9208  -0.9161  -0.9077  -0.9003  -0.8820
    -0.8780  -0.8614  -0.8300  -0.8281  -0.8260  -0.7659  -0.6681  -0.6317
    -0.6016  -0.5945  -0.5467  -0.4528  -0.3797  -0.1936  -0.1602  -0.1189
    -0.0036   0.0221   0.0573   0.1553   0.1620   0.1919   0.2706   0.2882
     0.3155   0.3346   0.5887   0.5921   0.6430   0.6718   0.7319   0.7783
     0.8027   0.8035   0.9241   0.9706   0.9831   1.1553   1.1639   1.1985
     1.3018   1.3262   1.3633   1.3875   1.4796   1.5213   1.5257   1.7954
     1.8682   1.8791   1.8972   1.8999   1.9100   1.9752   1.9821   2.0315
     2.0616   2.0733   2.1943   2.4010   2.4063   2.4083   2.4468   2.4514
     2.6432   2.6540   2.6776   2.7098   2.7216   2.7962   2.8416   3.1810
     3.2035   3.2179   3.2817   3.3295   3.3641   3.3778   3.5443   3.5475
     3.5700   3.6169   3.6259   3.7992   3.8064   3.8938   3.9030   4.0004
     4.0226   4.1243   4.1804   4.2439   4.2474   4.2704   4.3018   4.3974
     4.4721   4.4974   4.5211   4.5649   4.6630   4.8052   4.8115   4.8410
     4.8498   4.8523   4.8939   4.9670   4.9890   5.0741   5.0907   5.1945
     5.2015   5.2118   5.2380   5.2618   5.3013   5.4403   5.4932   5.5255
     5.5326   5.5331   5.5444   5.6498   5.6730   5.7195   5.7318   5.8368
     5.8522   5.8738   5.8957   5.9063   5.9064   5.9800   5.9912   6.0159
     6.0171   6.0265   6.0328   6.0422   6.0869   6.1382   6.1418   6.1477
     6.1657   6.2222   6.2291   6.3071   6.4016   6.4091   6.4469   6.4473
     6.4738   6.5148   6.5237   6.5725   6.5878   6.6322   6.6406   6.6540
     6.6608   6.6908   6.7353   6.7482   6.7688   6.8237   6.8288   6.9306
     6.9365   6.9722   6.9727   6.9987   7.0275   7.0636   7.1003   7.1088
     7.1284   7.1636   7.1906   7.1919   7.1998   7.2023   7.2795   7.2909
     7.3065   7.3547   7.3591   7.4025   7.4172   7.4339   7.4641   7.5086
     7.5608   7.5675   7.6063   7.6175   7.6581   7.6582   7.6665   7.6693
     7.6930   7.6938   7.7179   7.7229   7.7376   7.7420   7.7924   7.8310
     7.8580   7.8671   7.9401   7.9889   7.9964   8.0016   8.0249   8.0923

     the Fermi energy is     0.7844 ev

!    total energy              =  -11427.09402111 Ry
     Harris-Foulkes estimate   =  -11427.09402180 Ry
     estimated scf accuracy    <       0.00000067 Ry

     The total energy is the sum of the following terms:

     one-electron contribution = -129707.68914694 Ry
     hartree contribution      =   65677.87390992 Ry
     xc contribution           =   -5523.82419015 Ry
     ewald contribution        =   58126.48229572 Ry
     smearing contrib. (-TS)   =       0.06311035 Ry

     convergence has been achieved in  21 iterations

     negative rho (up, down):  3.085E+00 0.000E+00

     Forces acting on atoms (cartesian axes, Ry/au):

     atom    1 type  1   force =    -0.00101917    0.00015217    0.00832062
     atom    2 type  1   force =    -0.00100773   -0.00020845    0.00801542
     atom    3 type  1   force =    -0.00009705    0.00021289    0.00896510
     atom    4 type  1   force =    -0.00009478   -0.00015490    0.00865705
     atom    5 type  1   force =     0.00019200    0.00024433    0.00902930
     atom    6 type  1   force =     0.00018997   -0.00012535    0.00872099
     atom    7 type  1   force =    -0.00003926    0.00022866    0.00896730
     atom    8 type  1   force =    -0.00004341   -0.00014204    0.00866238
     atom    9 type  1   force =     0.00002042    0.00022682    0.00897628
     atom   10 type  1   force =     0.00002027   -0.00014363    0.00866999
     atom   11 type  1   force =    -0.00018072    0.00023646    0.00904235
     atom   12 type  1   force =    -0.00017972   -0.00013281    0.00873520
     atom   13 type  1   force =     0.00075087    0.00026082    0.00880917
     atom   14 type  1   force =     0.00074743   -0.00010693    0.00850230
     atom   15 type  1   force =    -0.00131728    0.00045844   -0.00547918
     atom   16 type  1   force =    -0.00131242   -0.00011372   -0.00558086
     atom   17 type  1   force =    -0.00019241    0.00043389   -0.00544661
     atom   18 type  1   force =    -0.00019034   -0.00015326   -0.00554653
     atom   19 type  1   force =     0.00015675    0.00043688   -0.00532343
     atom   20 type  1   force =     0.00015436   -0.00014658   -0.00542611
     atom   21 type  1   force =    -0.00008657    0.00044045   -0.00524185
     atom   22 type  1   force =    -0.00008661   -0.00014237   -0.00534407
     atom   23 type  1   force =     0.00005332    0.00044126   -0.00522649
     atom   24 type  1   force =     0.00005486   -0.00014114   -0.00532961
     atom   25 type  1   force =    -0.00015510    0.00043280   -0.00530245
     atom   26 type  1   force =    -0.00015459   -0.00014760   -0.00540468
     atom   27 type  1   force =     0.00104433    0.00043366   -0.00540382
     atom   28 type  1   force =     0.00104244   -0.00014540   -0.00550475
     atom   29 type  1   force =    -0.00058381   -0.00006366    0.00852627
     atom   30 type  1   force =    -0.00058493   -0.00054111    0.00857809
     atom   31 type  1   force =     0.00005222   -0.00008589    0.00875433
     atom   32 type  1   force =     0.00005173   -0.00056400    0.00880675
     atom   33 type  1   force =     0.00021160   -0.00009688    0.00869924
     atom   34 type  1   force =     0.00021160   -0.00057349    0.00874962
     atom   35 type  1   force =    -0.00002481   -0.00008648    0.00873191
     atom   36 type  1   force =    -0.00002526   -0.00055714    0.00878317
     atom   37 type  1   force =    -0.00021069   -0.00009383    0.00871218
     atom   38 type  1   force =    -0.00021025   -0.00056600    0.00876321
     atom   39 type  1   force =     0.00004739   -0.00009951    0.00874727
     atom   40 type  1   force =     0.00004676   -0.00057239    0.00880077
     atom   41 type  1   force =     0.00087402   -0.00018389    0.00801766
     atom   42 type  1   force =     0.00087840   -0.00064839    0.00806662
     atom   43 type  1   force =    -0.00078865   -0.00007976   -0.00549992
     atom   44 type  1   force =    -0.00079368   -0.00065203   -0.00545886
     atom   45 type  1   force =    -0.00001796   -0.00007986   -0.00542647
     atom   46 type  1   force =    -0.00001794   -0.00065553   -0.00538660
     atom   47 type  1   force =     0.00021204   -0.00007216   -0.00531764
     atom   48 type  1   force =     0.00021592   -0.00064534   -0.00527746
     atom   49 type  1   force =    -0.00003809   -0.00007664   -0.00526441
     atom   50 type  1   force =    -0.00003941   -0.00064930   -0.00522473
     atom   51 type  1   force =    -0.00019650   -0.00007605   -0.00529538
     atom   52 type  1   force =    -0.00019814   -0.00064517   -0.00525196
     atom   53 type  1   force =     0.00013925   -0.00008731   -0.00540712
     atom   54 type  1   force =     0.00014238   -0.00066031   -0.00536128
     atom   55 type  1   force =     0.00118271   -0.00004563   -0.00550638
     atom   56 type  1   force =     0.00118835   -0.00060759   -0.00546373
     atom   57 type  1   force =    -0.00096440    0.00069912   -0.00838816
     atom   58 type  1   force =    -0.00095610    0.00022420   -0.00803792
     atom   59 type  1   force =    -0.00019513    0.00065326   -0.00902106
     atom   60 type  1   force =    -0.00019074    0.00017119   -0.00867037
     atom   61 type  1   force =     0.00003907    0.00062359   -0.00906486
     atom   62 type  1   force =     0.00004139    0.00014248   -0.00871095
     atom   63 type  1   force =    -0.00013928    0.00063788   -0.00898795
     atom   64 type  1   force =    -0.00013978    0.00015808   -0.00863376
     atom   65 type  1   force =     0.00003223    0.00064011   -0.00899201
     atom   66 type  1   force =     0.00002989    0.00015930   -0.00863871
     atom   67 type  1   force =    -0.00005201    0.00063209   -0.00907253
     atom   68 type  1   force =    -0.00005551    0.00014742   -0.00871825
     atom   69 type  1   force =     0.00091462    0.00060461   -0.00886429
     atom   70 type  1   force =     0.00090945    0.00012273   -0.00851331
     atom   71 type  1   force =    -0.00080162    0.00079145    0.00512809
     atom   72 type  1   force =    -0.00079800    0.00019427    0.00530837
     atom   73 type  1   force =    -0.00008780    0.00079474    0.00516112
     atom   74 type  1   force =    -0.00008548    0.00019525    0.00533866
     atom   75 type  1   force =     0.00015306    0.00078589    0.00521382
     atom   76 type  1   force =     0.00015104    0.00018641    0.00539104
     atom   77 type  1   force =    -0.00006481    0.00079118    0.00526386
     atom   78 type  1   force =    -0.00006521    0.00018959    0.00544195
     atom   79 type  1   force =    -0.00017278    0.00079003    0.00527755
     atom   80 type  1   force =    -0.00017327    0.00018602    0.00545453
     atom   81 type  1   force =     0.00022118    0.00080044    0.00525748
     atom   82 type  1   force =     0.00021735    0.00019931    0.00543906
     atom   83 type  1   force =     0.00124859    0.00074668    0.00518061
     atom   84 type  1   force =     0.00124194    0.00015691    0.00536070
     atom   85 type  1   force =    -0.00128586    0.00009015    0.00531389
     atom   86 type  1   force =    -0.00129198   -0.00078828    0.00549429
     atom   87 type  1   force =    -0.00023337    0.00012830    0.00531931
     atom   88 type  1   force =    -0.00023425   -0.00076450    0.00549810
     atom   89 type  1   force =     0.00008407    0.00012563    0.00534149
     atom   90 type  1   force =     0.00008607   -0.00077306    0.00552273
     atom   91 type  1   force =    -0.00013286    0.00012200    0.00540765
     atom   92 type  1   force =    -0.00013299   -0.00077811    0.00558867
     atom   93 type  1   force =     0.00005052    0.00012142    0.00544279
     atom   94 type  1   force =     0.00005073   -0.00077717    0.00562411
     atom   95 type  1   force =    -0.00009411    0.00012881    0.00543508
     atom   96 type  1   force =    -0.00009338   -0.00076899    0.00561699
     atom   97 type  1   force =     0.00111489    0.00012363    0.00537069
     atom   98 type  1   force =     0.00111794   -0.00076601    0.00555076
     atom   99 type  1   force =    -0.00061093    0.00015008   -0.00853002
     atom  100 type  1   force =    -0.00061129   -0.00032630   -0.00859616
     atom  101 type  1   force =    -0.00008840    0.00017781   -0.00874264
     atom  102 type  1   force =    -0.00008663   -0.00030470   -0.00880658
     atom  103 type  1   force =     0.00007425    0.00018769   -0.00866455
     atom  104 type  1   force =     0.00007495   -0.00029757   -0.00872949
     atom  105 type  1   force =    -0.00007342    0.00017205   -0.00868122
     atom  106 type  1   force =    -0.00007371   -0.00031349   -0.00874748
     atom  107 type  1   force =    -0.00013573    0.00018308   -0.00866988
     atom  108 type  1   force =    -0.00013579   -0.00030173   -0.00873639
     atom  109 type  1   force =     0.00020683    0.00018593   -0.00873205
     atom  110 type  1   force =     0.00020626   -0.00029286   -0.00879929
     atom  111 type  1   force =     0.00099574    0.00026363   -0.00801778
     atom  112 type  1   force =     0.00100042   -0.00020168   -0.00808386

     Total force =     0.076763     Total SCF correction =     0.004694

     Writing output data file ./ausurf.save/
 
     init_run     :      5.81s CPU      6.28s WALL (       1 calls)
     electrons    :    309.84s CPU    318.38s WALL (       1 calls)
     forces       :      1.57s CPU      1.66s WALL (       1 calls)

     Called by init_run:
     wfcinit      :      4.40s CPU      4.67s WALL (       1 calls)
     potinit      :      0.14s CPU      0.18s WALL (       1 calls)
     hinit0       :      0.18s CPU      0.26s WALL (       1 calls)

     Called by electrons:
     c_bands      :    279.89s CPU    287.22s WALL (      22 calls)
     sum_band     :     26.62s CPU     27.42s WALL (      22 calls)
     v_of_rho     :      1.84s CPU      1.89s WALL (      22 calls)
     newd         :      0.66s CPU      0.80s WALL (      22 calls)
     mix_rho      :      0.42s CPU      0.45s WALL (      22 calls)

     Called by c_bands:
     init_us_2    :      0.24s CPU      0.24s WALL (      92 calls)
     cegterg      :    278.64s CPU    285.80s WALL (      44 calls)

     Called by sum_band:
     sum_band:bec :      0.57s CPU      0.57s WALL (      44 calls)
     addusdens    :      0.36s CPU      0.50s WALL (      22 calls)

     Called by *egterg:
     h_psi        :    115.84s CPU    118.87s WALL (     208 calls)
     s_psi        :      7.24s CPU      7.54s WALL (     208 calls)
     g_psi        :      0.07s CPU      0.07s WALL (     162 calls)
     cdiaghg      :    121.43s CPU    124.43s WALL (     204 calls)

     Called by h_psi:
     h_psi:calbec :     10.69s CPU     11.15s WALL (     208 calls)
     vloc_psi     :     97.72s CPU     99.80s WALL (     208 calls)
     add_vuspsi   :      7.29s CPU      7.71s WALL (     208 calls)

     General routines
     calbec       :     15.77s CPU     16.45s WALL (     260 calls)
     fft          :      2.77s CPU      2.85s WALL (     296 calls)
     ffts         :      0.45s CPU      0.46s WALL (      44 calls)
     fftw         :    115.74s CPU    118.21s WALL (  197706 calls)
     interpolate  :      0.41s CPU      0.42s WALL (      22 calls)
 
     Parallel routines
     fft_scatt_xy :      3.11s CPU      3.17s WALL (  198046 calls)
     fft_scatt_yz :    104.80s CPU    107.14s WALL (  198046 calls)
 
     PWSCF        :   5m33.78s CPU   6m43.58s WALL

 
   This run was terminated on:  11:57:45  23Jul2020            

=------------------------------------------------------------------------------=
   JOB DONE.
=------------------------------------------------------------------------------=
