
     Program PWSCF v.6.5 starts on 16Jul2020 at 14:16:30 

     This program is part of the open-source Quantum ESPRESSO suite
     for quantum simulation of materials; please cite
         "P. Giannozzi et al., J. Phys.:Condens. Matter 21 395502 (2009);
         "P. Giannozzi et al., J. Phys.:Condens. Matter 29 465901 (2017);
          URL http://www.quantum-espresso.org", 
     in publications or presentations arising from this work. More details at
     http://www.quantum-espresso.org/quote

     Parallel version (MPI & OpenMP), running on      72 processor cores
     Number of MPI processes:                72
     Threads/MPI process:                     1

     MPI processes distributed on     2 nodes
     R & G space division:  proc/nbgrp/npool/nimage =      72
     Reading input from ausurf_rmm.in

     Current dimensions of program PWSCF are:
     Max number of different atomic species (ntypx) = 10
     Max number of k-points (npk) =  40000
     Max angular momentum in pseudopotentials (lmaxx) =  3

     Subspace diagonalization in iterative solution of the eigenvalue problem:
     one sub-group per band group will be used
     scalapack distributed-memory algorithm (size of sub-group:  8*  8 procs)

 
     Parallelization info
     --------------------
     sticks:   dense  smooth     PW     G-vecs:    dense   smooth      PW
     Min         164      82     21                29974    10598    1397
     Max         165      84     22                29981    10606    1406
     Sum       11837    5915   1537              2158381   763307  100747
 

     Title: 
      DEISA pw benchmark                                                        


     bravais-lattice index     =            8
     lattice parameter (alat)  =      38.7583  a.u.
     unit-cell volume          =   45191.4962 (a.u.)^3
     number of atoms/cell      =          112
     number of atomic types    =            1
     number of electrons       =      1232.00
     number of Kohn-Sham states=          800
     kinetic-energy cutoff     =      25.0000  Ry
     charge density cutoff     =     200.0000  Ry
     convergence threshold     =      1.0E-06
     mixing beta               =       0.7000
     number of iterations used =            8  plain     mixing
     Exchange-correlation=  SLA  PW   PBE  PBE
                           (   1   4   3   4   0   0   0)

     celldm(1)=  38.758300  celldm(2)=   0.494393  celldm(3)=   1.569966
     celldm(4)=   0.000000  celldm(5)=   0.000000  celldm(6)=   0.000000

     crystal axes: (cart. coord. in units of alat)
               a(1) = (   1.000000   0.000000   0.000000 )  
               a(2) = (   0.000000   0.494393   0.000000 )  
               a(3) = (   0.000000   0.000000   1.569966 )  

     reciprocal axes: (cart. coord. in units 2 pi/alat)
               b(1) = (  1.000000  0.000000  0.000000 )  
               b(2) = (  0.000000  2.022682  0.000000 )  
               b(3) = (  0.000000  0.000000  0.636956 )  


     PseudoPot. # 1 for Au read from file:
     ./Au.pbe-nd-van.UPF
     MD5 check sum: deb5c07af10777505a79e28f5b4b4115
     Pseudo is Ultrasoft + core correction, Zval = 11.0
     Generated by new atomic code, or converted to UPF format
     Using radial grid of  985 points,  3 beta functions with: 
                l(1) =   1
                l(2) =   2
                l(3) =   2
     Q(r) pseudized with  8 coefficients,  rinner =    1.100   1.100   1.100
                                                       1.100   1.100

     atomic species   valence    mass     pseudopotential
        AU            11.00   196.96000     Au( 1.00)

     No symmetry found



   Cartesian axes

     site n.     atom                  positions (alat units)
         1           AU  tau(   1) = (   1.4278395   1.9784974   0.3497317  )
         2           AU  tau(   2) = (   1.4278395   1.7313987   0.3497317  )
         3           AU  tau(   3) = (   1.5706478   1.9784974   0.3497317  )
         4           AU  tau(   4) = (   1.5706478   1.7313987   0.3497317  )
         5           AU  tau(   5) = (   1.7134072   1.9784974   0.3497317  )
         6           AU  tau(   6) = (   1.7134072   1.7313987   0.3497317  )
         7           AU  tau(   7) = (   1.8562156   1.9784974   0.3497317  )
         8           AU  tau(   8) = (   1.8562156   1.7313987   0.3497317  )
         9           AU  tau(   9) = (   1.9989753   1.9784974   0.3497317  )
        10           AU  tau(  10) = (   1.9989753   1.7313987   0.3497317  )
        11           AU  tau(  11) = (   2.1417836   1.9784974   0.3497317  )
        12           AU  tau(  12) = (   2.1417836   1.7313987   0.3497317  )
        13           AU  tau(  13) = (   2.2845431   1.9784974   0.3497317  )
        14           AU  tau(  14) = (   2.2845431   1.7313987   0.3497317  )
        15           AU  tau(  15) = (   1.4278395   2.0609450   0.2331545  )
        16           AU  tau(  16) = (   1.4278395   1.8138461   0.2331545  )
        17           AU  tau(  17) = (   1.5706478   2.0609450   0.2331545  )
        18           AU  tau(  18) = (   1.5706478   1.8138461   0.2331545  )
        19           AU  tau(  19) = (   1.7134072   2.0609450   0.2331545  )
        20           AU  tau(  20) = (   1.7134072   1.8138461   0.2331545  )
        21           AU  tau(  21) = (   1.8562156   2.0609450   0.2331545  )
        22           AU  tau(  22) = (   1.8562156   1.8138461   0.2331545  )
        23           AU  tau(  23) = (   1.9989753   2.0609450   0.2331545  )
        24           AU  tau(  24) = (   1.9989753   1.8138461   0.2331545  )
        25           AU  tau(  25) = (   2.1417836   2.0609450   0.2331545  )
        26           AU  tau(  26) = (   2.1417836   1.8138461   0.2331545  )
        27           AU  tau(  27) = (   2.2845431   2.0609450   0.2331545  )
        28           AU  tau(  28) = (   2.2845431   1.8138461   0.2331545  )
        29           AU  tau(  29) = (   1.4992193   2.1021445   0.3497317  )
        30           AU  tau(  30) = (   1.4992193   1.8550456   0.3497317  )
        31           AU  tau(  31) = (   1.6420276   2.1021445   0.3497317  )
        32           AU  tau(  32) = (   1.6420276   1.8550456   0.3497317  )
        33           AU  tau(  33) = (   1.7847871   2.1021445   0.3497317  )
        34           AU  tau(  34) = (   1.7847871   1.8550456   0.3497317  )
        35           AU  tau(  35) = (   1.9275954   2.1021445   0.3497317  )
        36           AU  tau(  36) = (   1.9275954   1.8550456   0.3497317  )
        37           AU  tau(  37) = (   2.0704038   2.1021445   0.3497317  )
        38           AU  tau(  38) = (   2.0704038   1.8550456   0.3497317  )
        39           AU  tau(  39) = (   2.2131632   2.1021445   0.3497317  )
        40           AU  tau(  40) = (   2.2131632   1.8550456   0.3497317  )
        41           AU  tau(  41) = (   2.3559716   2.1021445   0.3497317  )
        42           AU  tau(  42) = (   2.3559716   1.8550456   0.3497317  )
        43           AU  tau(  43) = (   1.4992193   1.6901992   0.2331545  )
        44           AU  tau(  44) = (   1.4992193   1.9374930   0.2331545  )
        45           AU  tau(  45) = (   1.6420276   1.6901992   0.2331545  )
        46           AU  tau(  46) = (   1.6420276   1.9374930   0.2331545  )
        47           AU  tau(  47) = (   1.7847871   1.6901992   0.2331545  )
        48           AU  tau(  48) = (   1.7847871   1.9374930   0.2331545  )
        49           AU  tau(  49) = (   1.9275954   1.6901992   0.2331545  )
        50           AU  tau(  50) = (   1.9275954   1.9374930   0.2331545  )
        51           AU  tau(  51) = (   2.0704038   1.6901992   0.2331545  )
        52           AU  tau(  52) = (   2.0704038   1.9374930   0.2331545  )
        53           AU  tau(  53) = (   2.2131632   1.6901992   0.2331545  )
        54           AU  tau(  54) = (   2.2131632   1.9374930   0.2331545  )
        55           AU  tau(  55) = (   2.3559716   1.6901992   0.2331545  )
        56           AU  tau(  56) = (   2.3559716   1.9374930   0.2331545  )
        57           AU  tau(  57) = (   1.4278395   1.9784974   0.0000000  )
        58           AU  tau(  58) = (   1.4278395   1.7313987   0.0000000  )
        59           AU  tau(  59) = (   1.5706478   1.9784974   0.0000000  )
        60           AU  tau(  60) = (   1.5706478   1.7313987   0.0000000  )
        61           AU  tau(  61) = (   1.7134072   1.9784974   0.0000000  )
        62           AU  tau(  62) = (   1.7134072   1.7313987   0.0000000  )
        63           AU  tau(  63) = (   1.8562156   1.9784974   0.0000000  )
        64           AU  tau(  64) = (   1.8562156   1.7313987   0.0000000  )
        65           AU  tau(  65) = (   1.9989753   1.9784974   0.0000000  )
        66           AU  tau(  66) = (   1.9989753   1.7313987   0.0000000  )
        67           AU  tau(  67) = (   2.1417836   1.9784974   0.0000000  )
        68           AU  tau(  68) = (   2.1417836   1.7313987   0.0000000  )
        69           AU  tau(  69) = (   2.2845431   1.9784974   0.0000000  )
        70           AU  tau(  70) = (   2.2845431   1.7313987   0.0000000  )
        71           AU  tau(  71) = (   1.4992193   2.0196968   0.1165772  )
        72           AU  tau(  72) = (   1.4992193   1.7725979   0.1165772  )
        73           AU  tau(  73) = (   1.6420276   2.0196968   0.1165772  )
        74           AU  tau(  74) = (   1.6420276   1.7725979   0.1165772  )
        75           AU  tau(  75) = (   1.7847871   2.0196968   0.1165772  )
        76           AU  tau(  76) = (   1.7847871   1.7725979   0.1165772  )
        77           AU  tau(  77) = (   1.9275954   2.0196968   0.1165772  )
        78           AU  tau(  78) = (   1.9275954   1.7725979   0.1165772  )
        79           AU  tau(  79) = (   2.0704038   2.0196968   0.1165772  )
        80           AU  tau(  80) = (   2.0704038   1.7725979   0.1165772  )
        81           AU  tau(  81) = (   2.2131632   2.0196968   0.1165772  )
        82           AU  tau(  82) = (   2.2131632   1.7725979   0.1165772  )
        83           AU  tau(  83) = (   2.3559716   2.0196968   0.1165772  )
        84           AU  tau(  84) = (   2.3559716   1.7725979   0.1165772  )
        85           AU  tau(  85) = (   1.4278395   2.1433437   0.1165772  )
        86           AU  tau(  86) = (   1.4278395   1.8962938   0.1165772  )
        87           AU  tau(  87) = (   1.5706478   2.1433437   0.1165772  )
        88           AU  tau(  88) = (   1.5706478   1.8962938   0.1165772  )
        89           AU  tau(  89) = (   1.7134072   2.1433437   0.1165772  )
        90           AU  tau(  90) = (   1.7134072   1.8962938   0.1165772  )
        91           AU  tau(  91) = (   1.8562156   2.1433437   0.1165772  )
        92           AU  tau(  92) = (   1.8562156   1.8962938   0.1165772  )
        93           AU  tau(  93) = (   1.9989753   2.1433437   0.1165772  )
        94           AU  tau(  94) = (   1.9989753   1.8962938   0.1165772  )
        95           AU  tau(  95) = (   2.1417836   2.1433437   0.1165772  )
        96           AU  tau(  96) = (   2.1417836   1.8962938   0.1165772  )
        97           AU  tau(  97) = (   2.2845431   2.1433437   0.1165772  )
        98           AU  tau(  98) = (   2.2845431   1.8962938   0.1165772  )
        99           AU  tau(  99) = (   1.4992193   2.1021445   0.0000000  )
       100           AU  tau( 100) = (   1.4992193   1.8550456   0.0000000  )
       101           AU  tau( 101) = (   1.6420276   2.1021445   0.0000000  )
       102           AU  tau( 102) = (   1.6420276   1.8550456   0.0000000  )
       103           AU  tau( 103) = (   1.7847871   2.1021445   0.0000000  )
       104           AU  tau( 104) = (   1.7847871   1.8550456   0.0000000  )
       105           AU  tau( 105) = (   1.9275954   2.1021445   0.0000000  )
       106           AU  tau( 106) = (   1.9275954   1.8550456   0.0000000  )
       107           AU  tau( 107) = (   2.0704038   2.1021445   0.0000000  )
       108           AU  tau( 108) = (   2.0704038   1.8550456   0.0000000  )
       109           AU  tau( 109) = (   2.2131632   2.1021445   0.0000000  )
       110           AU  tau( 110) = (   2.2131632   1.8550456   0.0000000  )
       111           AU  tau( 111) = (   2.3559716   2.1021445   0.0000000  )
       112           AU  tau( 112) = (   2.3559716   1.8550456   0.0000000  )

     number of k points=     2  Marzari-Vanderbilt smearing, width (Ry)=  0.0500
                       cart. coord. in units 2pi/alat
        k(    1) = (   0.2500000   0.5056706   0.0000000), wk =   1.0000000
        k(    2) = (  -0.2500000   0.5056706   0.0000000), wk =   1.0000000

     Dense  grid:  2158381 G-vectors     FFT dimensions: ( 180,  90, 288)

     Smooth grid:   763307 G-vectors     FFT dimensions: ( 125,  64, 200)

     Estimated max dynamical RAM per process >     389.65 MB

     Estimated total dynamical RAM >      27.40 GB

     Initial potential from superposition of free atoms

     starting charge 1230.69946, renormalised to 1232.00000

     negative rho (up, down):  3.043E+00 0.000E+00
     Starting wfcs are 1008 randomized atomic wfcs

     total cpu time spent up to now is       10.7 secs

     Self-consistent Calculation

     iteration #  1     ecut=    25.00 Ry     beta= 0.70
     RMM-DIIS diagonalization
     ethr =  1.00E-02,  avg # of iterations =  1.9

     Threshold (ethr) on eigenvalues was too large:
     Diagonalizing with lowered threshold

     RMM-DIIS diagonalization
     ethr =  3.12E-04,  avg # of iterations =  2.8

     negative rho (up, down):  2.995E+00 0.000E+00

     total cpu time spent up to now is       50.7 secs

     total energy              =  -11423.76517151 Ry
     Harris-Foulkes estimate   =  -11428.38282248 Ry
     estimated scf accuracy    <       5.88315020 Ry

     iteration #  2     ecut=    25.00 Ry     beta= 0.70
     RMM-DIIS diagonalization
     ethr =  4.78E-04,  avg # of iterations =  4.0

     negative rho (up, down):  3.010E+00 0.000E+00

     total cpu time spent up to now is       76.6 secs

     total energy              =  -11411.90765430 Ry
     Harris-Foulkes estimate   =  -11438.88217957 Ry
     estimated scf accuracy    <     153.74604112 Ry

     iteration #  3     ecut=    25.00 Ry     beta= 0.70
     RMM-DIIS diagonalization
     ethr =  4.78E-04,  avg # of iterations =  3.7

     negative rho (up, down):  3.050E+00 0.000E+00

     total cpu time spent up to now is      100.6 secs

     total energy              =  -11426.43988457 Ry
     Harris-Foulkes estimate   =  -11427.77576106 Ry
     estimated scf accuracy    <       3.64516787 Ry

     iteration #  4     ecut=    25.00 Ry     beta= 0.70
     RMM-DIIS diagonalization
     ethr =  2.96E-04,  avg # of iterations =  2.7

     negative rho (up, down):  3.058E+00 0.000E+00

     total cpu time spent up to now is      119.9 secs

     total energy              =  -11426.68731958 Ry
     Harris-Foulkes estimate   =  -11427.17088587 Ry
     estimated scf accuracy    <       2.15315133 Ry

     iteration #  5     ecut=    25.00 Ry     beta= 0.70
     RMM-DIIS diagonalization
     ethr =  1.75E-04,  avg # of iterations =  2.6

     negative rho (up, down):  3.074E+00 0.000E+00

     total cpu time spent up to now is      138.9 secs

     total energy              =  -11426.81393230 Ry
     Harris-Foulkes estimate   =  -11427.39133278 Ry
     estimated scf accuracy    <       5.85931739 Ry

     iteration #  6     ecut=    25.00 Ry     beta= 0.70
     RMM-DIIS diagonalization
     ethr =  1.75E-04,  avg # of iterations =  2.5

     negative rho (up, down):  3.079E+00 0.000E+00

     total cpu time spent up to now is      157.6 secs

     total energy              =  -11427.07238589 Ry
     Harris-Foulkes estimate   =  -11427.09146169 Ry
     estimated scf accuracy    <       0.07809069 Ry

     iteration #  7     ecut=    25.00 Ry     beta= 0.70
     RMM-DIIS diagonalization
     ethr =  6.34E-06,  avg # of iterations =  3.6

     negative rho (up, down):  3.082E+00 0.000E+00

     total cpu time spent up to now is      181.4 secs

     total energy              =  -11427.06660497 Ry
     Harris-Foulkes estimate   =  -11427.11630221 Ry
     estimated scf accuracy    <       0.28730311 Ry

     iteration #  8     ecut=    25.00 Ry     beta= 0.70
     RMM-DIIS diagonalization
     ethr =  6.34E-06,  avg # of iterations =  2.9

     negative rho (up, down):  3.084E+00 0.000E+00

     total cpu time spent up to now is      206.6 secs

     total energy              =  -11427.07038894 Ry
     Harris-Foulkes estimate   =  -11427.11563108 Ry
     estimated scf accuracy    <       0.53736323 Ry

     iteration #  9     ecut=    25.00 Ry     beta= 0.70
     RMM-DIIS diagonalization
     ethr =  6.34E-06,  avg # of iterations =  2.7

     negative rho (up, down):  3.084E+00 0.000E+00

     total cpu time spent up to now is      226.0 secs

     total energy              =  -11427.09282095 Ry
     Harris-Foulkes estimate   =  -11427.09399131 Ry
     estimated scf accuracy    <       0.00436332 Ry

     iteration # 10     ecut=    25.00 Ry     beta= 0.70
     RMM-DIIS diagonalization
     ethr =  3.54E-07,  avg # of iterations =  3.3

     negative rho (up, down):  3.083E+00 0.000E+00

     total cpu time spent up to now is      248.1 secs

     total energy              =  -11427.09319139 Ry
     Harris-Foulkes estimate   =  -11427.09461171 Ry
     estimated scf accuracy    <       0.00696133 Ry

     iteration # 11     ecut=    25.00 Ry     beta= 0.70
     RMM-DIIS diagonalization
     ethr =  3.54E-07,  avg # of iterations =  2.7

     negative rho (up, down):  3.084E+00 0.000E+00

     total cpu time spent up to now is      267.6 secs

     total energy              =  -11427.09345865 Ry
     Harris-Foulkes estimate   =  -11427.09434420 Ry
     estimated scf accuracy    <       0.00407858 Ry

     iteration # 12     ecut=    25.00 Ry     beta= 0.70
     RMM-DIIS diagonalization
     ethr =  3.31E-07,  avg # of iterations =  2.7

     negative rho (up, down):  3.084E+00 0.000E+00

     total cpu time spent up to now is      287.1 secs

     total energy              =  -11427.09336140 Ry
     Harris-Foulkes estimate   =  -11427.09444862 Ry
     estimated scf accuracy    <       0.00901108 Ry

     iteration # 13     ecut=    25.00 Ry     beta= 0.70
     RMM-DIIS diagonalization
     ethr =  3.31E-07,  avg # of iterations =  2.7

     negative rho (up, down):  3.084E+00 0.000E+00

     total cpu time spent up to now is      306.3 secs

     total energy              =  -11427.09384097 Ry
     Harris-Foulkes estimate   =  -11427.09417667 Ry
     estimated scf accuracy    <       0.00200499 Ry

     iteration # 14     ecut=    25.00 Ry     beta= 0.70
     RMM-DIIS diagonalization
     ethr =  1.63E-07,  avg # of iterations =  2.7

     negative rho (up, down):  3.085E+00 0.000E+00

     total cpu time spent up to now is      325.6 secs

     total energy              =  -11427.09399471 Ry
     Harris-Foulkes estimate   =  -11427.09403221 Ry
     estimated scf accuracy    <       0.00010872 Ry

     iteration # 15     ecut=    25.00 Ry     beta= 0.70
     RMM-DIIS diagonalization
     ethr =  8.83E-09,  avg # of iterations =  2.8

     negative rho (up, down):  3.085E+00 0.000E+00

     total cpu time spent up to now is      345.4 secs

     total energy              =  -11427.09401306 Ry
     Harris-Foulkes estimate   =  -11427.09402107 Ry
     estimated scf accuracy    <       0.00002094 Ry

     iteration # 16     ecut=    25.00 Ry     beta= 0.70
     RMM-DIIS diagonalization
     ethr =  1.70E-09,  avg # of iterations =  3.6

     negative rho (up, down):  3.085E+00 0.000E+00

     total cpu time spent up to now is      368.9 secs

     total energy              =  -11427.09401115 Ry
     Harris-Foulkes estimate   =  -11427.09402740 Ry
     estimated scf accuracy    <       0.00008819 Ry

     iteration # 17     ecut=    25.00 Ry     beta= 0.70
     RMM-DIIS diagonalization
     ethr =  1.70E-09,  avg # of iterations =  3.0

     negative rho (up, down):  3.085E+00 0.000E+00

     total cpu time spent up to now is      389.9 secs

     total energy              =  -11427.09400956 Ry
     Harris-Foulkes estimate   =  -11427.09402909 Ry
     estimated scf accuracy    <       0.00009033 Ry

     iteration # 18     ecut=    25.00 Ry     beta= 0.70
     RMM-DIIS diagonalization
     ethr =  1.70E-09,  avg # of iterations =  2.9

     negative rho (up, down):  3.085E+00 0.000E+00

     total cpu time spent up to now is      410.4 secs

     total energy              =  -11427.09399287 Ry
     Harris-Foulkes estimate   =  -11427.09404977 Ry
     estimated scf accuracy    <       0.00070451 Ry

     iteration # 19     ecut=    25.00 Ry     beta= 0.70
     RMM-DIIS diagonalization
     ethr =  1.70E-09,  avg # of iterations =  2.7

     negative rho (up, down):  3.085E+00 0.000E+00

     total cpu time spent up to now is      429.8 secs

     total energy              =  -11427.09401848 Ry
     Harris-Foulkes estimate   =  -11427.09402404 Ry
     estimated scf accuracy    <       0.00003724 Ry

     iteration # 20     ecut=    25.00 Ry     beta= 0.70
     RMM-DIIS diagonalization
     ethr =  1.70E-09,  avg # of iterations =  2.7

     negative rho (up, down):  3.085E+00 0.000E+00

     total cpu time spent up to now is      449.0 secs

     total energy              =  -11427.09402074 Ry
     Harris-Foulkes estimate   =  -11427.09402251 Ry
     estimated scf accuracy    <       0.00001001 Ry

     iteration # 21     ecut=    25.00 Ry     beta= 0.70
     RMM-DIIS diagonalization
     ethr =  8.12E-10,  avg # of iterations =  2.7

     negative rho (up, down):  3.085E+00 0.000E+00

     total cpu time spent up to now is      468.2 secs

     total energy              =  -11427.09402150 Ry
     Harris-Foulkes estimate   =  -11427.09402172 Ry
     estimated scf accuracy    <       0.00000102 Ry

     iteration # 22     ecut=    25.00 Ry     beta= 0.70
     RMM-DIIS diagonalization
     ethr =  8.29E-11,  avg # of iterations =  2.7

     negative rho (up, down):  3.085E+00 0.000E+00

     total cpu time spent up to now is      487.8 secs

     End of self-consistent calculation

          k = 0.2500 0.5057 0.0000 ( 95386 PWs)   bands (ev):

    -8.0047  -7.7853  -7.3693  -7.1563  -6.9587  -6.8864  -6.8074  -6.6746
    -6.6107  -6.2899  -6.2193  -6.1889  -6.1049  -6.0372  -5.9301  -5.9278
    -5.8886  -5.8390  -5.8309  -5.8248  -5.7938  -5.7359  -5.7238  -5.6813
    -5.6674  -5.6494  -5.6453  -5.6400  -5.5497  -5.5383  -5.5308  -5.5226
    -5.5163  -5.5071  -5.4891  -5.4811  -5.4628  -5.4594  -5.4281  -5.3750
    -5.3689  -5.3536  -5.3514  -5.3169  -5.3098  -5.2937  -5.2911  -5.2335
    -5.2325  -5.2325  -5.2281  -5.2182  -5.1996  -5.1785  -5.1553  -5.1445
    -5.1297  -5.1243  -5.1156  -5.1140  -5.1104  -5.1091  -5.0879  -5.0674
    -5.0646  -5.0569  -5.0558  -5.0488  -5.0406  -5.0376  -5.0303  -4.9876
    -4.9819  -4.9668  -4.9636  -4.9480  -4.9341  -4.9322  -4.9287  -4.9267
    -4.9175  -4.9158  -4.9068  -4.9038  -4.8856  -4.8852  -4.8816  -4.8717
    -4.8717  -4.8620  -4.8594  -4.8486  -4.8279  -4.8268  -4.8246  -4.8219
    -4.7417  -4.7391  -4.7375  -4.7366  -4.7327  -4.7254  -4.7210  -4.7207
    -4.7201  -4.7119  -4.6993  -4.6846  -4.6741  -4.6164  -4.5999  -4.5969
    -4.5932  -4.5848  -4.5623  -4.5609  -4.5572  -4.5266  -4.4704  -4.4694
    -4.4507  -4.4136  -4.3978  -4.3950  -4.3933  -4.3930  -4.3915  -4.3852
    -4.3552  -4.3455  -4.3449  -4.3369  -4.3254  -4.3228  -4.3200  -4.3034
    -4.3019  -4.2737  -4.2643  -4.2572  -4.2475  -4.2450  -4.2292  -4.2104
    -4.1936  -4.1677  -4.1560  -4.1549  -4.1544  -4.1529  -4.1481  -4.1393
    -4.1371  -4.1043  -4.0970  -4.0833  -4.0773  -4.0760  -4.0697  -4.0542
    -4.0504  -4.0351  -4.0305  -4.0238  -4.0212  -4.0170  -4.0083  -3.9937
    -3.9866  -3.9705  -3.9584  -3.9273  -3.9138  -3.8984  -3.8929  -3.8894
    -3.8708  -3.8705  -3.8609  -3.8372  -3.8364  -3.8328  -3.8163  -3.8082
    -3.7858  -3.7799  -3.7390  -3.7356  -3.7263  -3.7239  -3.7147  -3.7100
    -3.7007  -3.6851  -3.6805  -3.6710  -3.6587  -3.6403  -3.6190  -3.6190
    -3.6171  -3.6160  -3.6054  -3.6016  -3.5989  -3.5950  -3.5915  -3.5795
    -3.5696  -3.5668  -3.5643  -3.5593  -3.5573  -3.5507  -3.5456  -3.5446
    -3.5433  -3.5340  -3.5234  -3.4921  -3.4821  -3.4561  -3.4538  -3.4427
    -3.4423  -3.4403  -3.4390  -3.4259  -3.4212  -3.4125  -3.4049  -3.3968
    -3.3877  -3.3795  -3.3738  -3.3718  -3.3701  -3.3693  -3.3641  -3.3561
    -3.3523  -3.3372  -3.3354  -3.3267  -3.3259  -3.3242  -3.3197  -3.3169
    -3.3132  -3.3128  -3.3089  -3.3084  -3.2995  -3.2967  -3.2917  -3.2859
    -3.2812  -3.2793  -3.2589  -3.2496  -3.2466  -3.2436  -3.2379  -3.2286
    -3.2195  -3.2187  -3.2140  -3.2100  -3.2020  -3.1996  -3.1888  -3.1803
    -3.1788  -3.1730  -3.1719  -3.1682  -3.1667  -3.1590  -3.1579  -3.1457
    -3.1455  -3.1214  -3.1210  -3.1104  -3.0981  -3.0904  -3.0842  -3.0578
    -3.0411  -3.0398  -3.0343  -3.0331  -3.0260  -3.0237  -3.0229  -3.0179
    -3.0171  -3.0161  -3.0154  -3.0089  -3.0022  -3.0013  -2.9891  -2.9847
    -2.9816  -2.9806  -2.9799  -2.9748  -2.9747  -2.9709  -2.9685  -2.9507
    -2.9149  -2.9129  -2.8899  -2.8757  -2.8740  -2.8622  -2.8595  -2.8491
    -2.8474  -2.8278  -2.8218  -2.8203  -2.7995  -2.7960  -2.7954  -2.7829
    -2.7795  -2.7752  -2.7672  -2.7639  -2.7500  -2.7490  -2.7466  -2.7419
    -2.7231  -2.7223  -2.7205  -2.7178  -2.6626  -2.6541  -2.6460  -2.6365
    -2.6294  -2.6259  -2.6213  -2.5954  -2.5799  -2.5696  -2.5672  -2.5667
    -2.5633  -2.5589  -2.5529  -2.5406  -2.5279  -2.5250  -2.5193  -2.5159
    -2.5088  -2.5070  -2.5009  -2.4927  -2.4897  -2.4861  -2.4803  -2.4791
    -2.4730  -2.4722  -2.4663  -2.4655  -2.4596  -2.4489  -2.4351  -2.4345
    -2.4063  -2.3999  -2.3981  -2.3741  -2.3701  -2.3630  -2.3557  -2.3556
    -2.3485  -2.3451  -2.3354  -2.3322  -2.3151  -2.3002  -2.2926  -2.2717
    -2.2683  -2.2665  -2.2635  -2.2486  -2.2431  -2.2334  -2.2315  -2.2149
    -2.2124  -2.2053  -2.2051  -2.1977  -2.1969  -2.1781  -2.1447  -2.1359
    -2.1302  -2.1056  -2.1022  -2.0846  -2.0673  -2.0483  -2.0473  -2.0440
    -2.0372  -2.0317  -2.0021  -1.9981  -1.9946  -1.9639  -1.9605  -1.9571
    -1.9559  -1.9517  -1.9479  -1.9451  -1.9391  -1.9386  -1.9368  -1.9307
    -1.9297  -1.9274  -1.9169  -1.9120  -1.9076  -1.9018  -1.8645  -1.8555
    -1.8548  -1.8384  -1.8308  -1.8271  -1.8230  -1.8169  -1.8159  -1.8134
    -1.8113  -1.8012  -1.8000  -1.7988  -1.7932  -1.7663  -1.7594  -1.7584
    -1.7573  -1.7481  -1.7430  -1.7423  -1.7364  -1.7363  -1.7264  -1.7237
    -1.7061  -1.7045  -1.6987  -1.6977  -1.6879  -1.6743  -1.6700  -1.6656
    -1.6633  -1.6585  -1.6506  -1.6286  -1.6129  -1.6036  -1.5992  -1.5973
    -1.5790  -1.5758  -1.5753  -1.5738  -1.5600  -1.5446  -1.5042  -1.4990
    -1.4925  -1.4879  -1.4798  -1.4789  -1.4705  -1.4671  -1.4597  -1.4579
    -1.4509  -1.4442  -1.4334  -1.4323  -1.4260  -1.4131  -1.4125  -1.4072
    -1.3995  -1.3815  -1.3716  -1.3683  -1.3628  -1.3578  -1.3452  -1.3394
    -1.3276  -1.3254  -1.3217  -1.3072  -1.3024  -1.2975  -1.2931  -1.2871
    -1.2870  -1.2777  -1.2764  -1.2669  -1.2644  -1.2552  -1.2535  -1.2495
    -1.2415  -1.2395  -1.2278  -1.2274  -1.2198  -1.2191  -1.2190  -1.2187
    -1.2152  -1.2086  -1.2058  -1.1778  -1.1765  -1.1705  -1.1564  -1.1552
    -1.1448  -1.1400  -1.1377  -1.1334  -1.1299  -1.1249  -1.1243  -1.1216
    -1.1187  -1.1074  -1.1058  -1.0983  -1.0872  -1.0827  -1.0798  -1.0779
    -1.0770  -1.0756  -1.0723  -1.0627  -1.0578  -1.0548  -1.0535  -1.0507
    -1.0500  -1.0440  -1.0043  -0.9809  -0.9696  -0.9648  -0.9521  -0.9371
    -0.9357  -0.9292  -0.9244  -0.9206  -0.9159  -0.9076  -0.9001  -0.8818
    -0.8779  -0.8613  -0.8299  -0.8279  -0.8258  -0.7657  -0.6679  -0.6315
    -0.6014  -0.5944  -0.5466  -0.4526  -0.3795  -0.1934  -0.1600  -0.1187
    -0.0034   0.0223   0.0574   0.1554   0.1622   0.1921   0.2707   0.2884
     0.3157   0.3348   0.5888   0.5923   0.6432   0.6720   0.7321   0.7784
     0.8028   0.8037   0.9242   0.9708   0.9833   1.1555   1.1641   1.1986
     1.3019   1.3264   1.3634   1.3877   1.4797   1.5214   1.5259   1.7956
     1.8683   1.8792   1.8973   1.9001   1.9102   1.9753   1.9823   2.0317
     2.0617   2.0735   2.1945   2.4012   2.4064   2.4085   2.4470   2.4515
     2.6433   2.6541   2.6777   2.7100   2.7217   2.7963   2.8418   3.1811
     3.2036   3.2180   3.2818   3.3296   3.3643   3.3780   3.5444   3.5477
     3.5701   3.6171   3.6261   3.7994   3.8065   3.8940   3.9031   4.0005
     4.0227   4.1244   4.1805   4.2441   4.2475   4.2706   4.3020   4.3975
     4.4722   4.4975   4.5212   4.5651   4.6632   4.8054   4.8117   4.8412
     4.8500   4.8525   4.8941   4.9671   4.9891   5.0742   5.0909   5.1946
     5.2017   5.2120   5.2382   5.2620   5.3016   5.4406   5.5257   5.5328
     5.5332   5.5445   5.6500   5.7196   5.7319   5.8369   5.8524   5.8738
     5.8959   5.9065   5.9914   6.0160   6.0169   6.0264   6.0424   6.1380
     6.1474   6.1651   6.2223   6.3069   6.4009   6.4465   6.5138   6.5227
     6.5869   6.6314   6.6530   6.6899   6.7346   6.7432   6.9670   7.0252
     7.0611   7.1187   7.1814   7.1946   7.1958   7.2771   7.3404   7.3515
     7.3959   7.4118   7.5057   7.5550   7.5607   7.5975   7.6625   7.6863
     7.7082   7.7349   7.8577   7.8611   7.9850   8.0106   8.0869   8.1100
     8.1557   8.1961   8.2156   8.2548   8.3013   8.3464   8.3808   8.4508
     8.4992   8.5464   8.5593   8.5884   8.5920   8.6105   8.6561   8.6769
     8.6831   8.6974   8.7104   8.7488   9.1945   9.2476   9.2483   9.2507
     9.2653   9.4023   9.4137   9.4361   9.4413   9.4452   9.5304   9.5429
     9.5744   9.6058   9.7319   9.8723   9.9310  10.3793  10.4160  10.7262

          k =-0.2500 0.5057 0.0000 ( 95386 PWs)   bands (ev):

    -8.0047  -7.7853  -7.3693  -7.1563  -6.9587  -6.8864  -6.8074  -6.6746
    -6.6107  -6.2899  -6.2193  -6.1889  -6.1049  -6.0372  -5.9301  -5.9278
    -5.8886  -5.8390  -5.8309  -5.8248  -5.7938  -5.7359  -5.7238  -5.6813
    -5.6674  -5.6494  -5.6453  -5.6400  -5.5497  -5.5383  -5.5308  -5.5226
    -5.5163  -5.5071  -5.4891  -5.4811  -5.4628  -5.4594  -5.4281  -5.3750
    -5.3689  -5.3536  -5.3514  -5.3169  -5.3098  -5.2937  -5.2911  -5.2336
    -5.2325  -5.2325  -5.2281  -5.2182  -5.1996  -5.1785  -5.1553  -5.1445
    -5.1297  -5.1243  -5.1155  -5.1140  -5.1104  -5.1090  -5.0879  -5.0674
    -5.0646  -5.0569  -5.0558  -5.0488  -5.0406  -5.0376  -5.0303  -4.9876
    -4.9819  -4.9668  -4.9636  -4.9480  -4.9341  -4.9322  -4.9287  -4.9267
    -4.9175  -4.9158  -4.9068  -4.9038  -4.8856  -4.8852  -4.8816  -4.8717
    -4.8717  -4.8620  -4.8594  -4.8486  -4.8279  -4.8268  -4.8246  -4.8219
    -4.7417  -4.7391  -4.7375  -4.7366  -4.7327  -4.7254  -4.7210  -4.7207
    -4.7201  -4.7119  -4.6993  -4.6846  -4.6741  -4.6164  -4.5999  -4.5969
    -4.5932  -4.5848  -4.5623  -4.5609  -4.5572  -4.5266  -4.4704  -4.4694
    -4.4507  -4.4136  -4.3978  -4.3950  -4.3934  -4.3930  -4.3915  -4.3852
    -4.3552  -4.3455  -4.3449  -4.3369  -4.3254  -4.3228  -4.3200  -4.3034
    -4.3019  -4.2737  -4.2643  -4.2572  -4.2475  -4.2450  -4.2292  -4.2104
    -4.1936  -4.1677  -4.1560  -4.1549  -4.1544  -4.1529  -4.1481  -4.1394
    -4.1371  -4.1043  -4.0970  -4.0833  -4.0773  -4.0760  -4.0697  -4.0542
    -4.0504  -4.0351  -4.0305  -4.0239  -4.0211  -4.0170  -4.0083  -3.9937
    -3.9866  -3.9705  -3.9584  -3.9273  -3.9138  -3.8984  -3.8929  -3.8894
    -3.8708  -3.8705  -3.8609  -3.8372  -3.8364  -3.8328  -3.8163  -3.8082
    -3.7858  -3.7799  -3.7390  -3.7356  -3.7263  -3.7239  -3.7147  -3.7100
    -3.7007  -3.6851  -3.6805  -3.6710  -3.6587  -3.6403  -3.6190  -3.6190
    -3.6171  -3.6160  -3.6054  -3.6016  -3.5989  -3.5950  -3.5915  -3.5795
    -3.5696  -3.5668  -3.5643  -3.5593  -3.5573  -3.5507  -3.5457  -3.5446
    -3.5433  -3.5340  -3.5234  -3.4921  -3.4821  -3.4561  -3.4538  -3.4427
    -3.4423  -3.4403  -3.4390  -3.4259  -3.4212  -3.4125  -3.4049  -3.3968
    -3.3877  -3.3795  -3.3738  -3.3718  -3.3701  -3.3693  -3.3641  -3.3561
    -3.3523  -3.3372  -3.3354  -3.3267  -3.3259  -3.3242  -3.3197  -3.3169
    -3.3132  -3.3128  -3.3089  -3.3084  -3.2995  -3.2968  -3.2917  -3.2859
    -3.2812  -3.2792  -3.2589  -3.2495  -3.2466  -3.2436  -3.2379  -3.2286
    -3.2195  -3.2187  -3.2140  -3.2100  -3.2020  -3.1996  -3.1888  -3.1803
    -3.1788  -3.1731  -3.1719  -3.1682  -3.1667  -3.1590  -3.1579  -3.1457
    -3.1455  -3.1214  -3.1210  -3.1104  -3.0981  -3.0904  -3.0842  -3.0578
    -3.0411  -3.0398  -3.0343  -3.0331  -3.0260  -3.0237  -3.0229  -3.0179
    -3.0171  -3.0161  -3.0154  -3.0089  -3.0022  -3.0013  -2.9892  -2.9847
    -2.9816  -2.9805  -2.9798  -2.9748  -2.9748  -2.9709  -2.9685  -2.9507
    -2.9149  -2.9129  -2.8899  -2.8756  -2.8740  -2.8622  -2.8595  -2.8491
    -2.8474  -2.8278  -2.8218  -2.8203  -2.7995  -2.7960  -2.7954  -2.7829
    -2.7795  -2.7752  -2.7672  -2.7639  -2.7500  -2.7490  -2.7466  -2.7419
    -2.7231  -2.7223  -2.7205  -2.7178  -2.6626  -2.6541  -2.6460  -2.6365
    -2.6294  -2.6259  -2.6213  -2.5954  -2.5799  -2.5696  -2.5672  -2.5667
    -2.5633  -2.5588  -2.5529  -2.5406  -2.5279  -2.5250  -2.5193  -2.5159
    -2.5088  -2.5070  -2.5010  -2.4927  -2.4897  -2.4861  -2.4803  -2.4791
    -2.4730  -2.4722  -2.4663  -2.4655  -2.4596  -2.4489  -2.4351  -2.4345
    -2.4063  -2.3999  -2.3981  -2.3741  -2.3701  -2.3630  -2.3557  -2.3556
    -2.3485  -2.3451  -2.3354  -2.3322  -2.3151  -2.3002  -2.2926  -2.2717
    -2.2683  -2.2665  -2.2635  -2.2486  -2.2431  -2.2334  -2.2315  -2.2149
    -2.2124  -2.2053  -2.2051  -2.1977  -2.1969  -2.1781  -2.1447  -2.1359
    -2.1302  -2.1056  -2.1022  -2.0846  -2.0673  -2.0483  -2.0473  -2.0440
    -2.0372  -2.0317  -2.0021  -1.9981  -1.9946  -1.9639  -1.9605  -1.9571
    -1.9559  -1.9517  -1.9479  -1.9451  -1.9391  -1.9386  -1.9368  -1.9307
    -1.9297  -1.9273  -1.9169  -1.9120  -1.9076  -1.9018  -1.8645  -1.8555
    -1.8548  -1.8384  -1.8308  -1.8271  -1.8230  -1.8169  -1.8159  -1.8134
    -1.8113  -1.8012  -1.8000  -1.7988  -1.7932  -1.7663  -1.7594  -1.7584
    -1.7573  -1.7481  -1.7430  -1.7423  -1.7364  -1.7363  -1.7264  -1.7237
    -1.7061  -1.7045  -1.6987  -1.6977  -1.6879  -1.6742  -1.6700  -1.6656
    -1.6633  -1.6585  -1.6506  -1.6286  -1.6129  -1.6036  -1.5992  -1.5973
    -1.5790  -1.5758  -1.5753  -1.5738  -1.5600  -1.5446  -1.5042  -1.4990
    -1.4925  -1.4879  -1.4798  -1.4789  -1.4705  -1.4671  -1.4597  -1.4579
    -1.4509  -1.4442  -1.4334  -1.4323  -1.4260  -1.4131  -1.4125  -1.4072
    -1.3995  -1.3815  -1.3716  -1.3683  -1.3628  -1.3578  -1.3452  -1.3394
    -1.3276  -1.3254  -1.3217  -1.3072  -1.3024  -1.2975  -1.2931  -1.2871
    -1.2870  -1.2777  -1.2764  -1.2669  -1.2644  -1.2552  -1.2535  -1.2495
    -1.2415  -1.2395  -1.2278  -1.2274  -1.2198  -1.2191  -1.2190  -1.2187
    -1.2152  -1.2086  -1.2058  -1.1778  -1.1765  -1.1705  -1.1564  -1.1552
    -1.1448  -1.1400  -1.1377  -1.1334  -1.1299  -1.1249  -1.1243  -1.1216
    -1.1187  -1.1074  -1.1058  -1.0983  -1.0872  -1.0827  -1.0798  -1.0779
    -1.0770  -1.0756  -1.0723  -1.0627  -1.0578  -1.0548  -1.0535  -1.0507
    -1.0500  -1.0440  -1.0043  -0.9809  -0.9696  -0.9648  -0.9521  -0.9372
    -0.9356  -0.9292  -0.9244  -0.9206  -0.9159  -0.9076  -0.9001  -0.8818
    -0.8779  -0.8613  -0.8299  -0.8279  -0.8258  -0.7657  -0.6679  -0.6315
    -0.6014  -0.5944  -0.5466  -0.4526  -0.3795  -0.1934  -0.1600  -0.1187
    -0.0034   0.0223   0.0574   0.1554   0.1622   0.1921   0.2707   0.2884
     0.3157   0.3348   0.5888   0.5923   0.6432   0.6720   0.7321   0.7784
     0.8028   0.8036   0.9242   0.9708   0.9833   1.1555   1.1641   1.1986
     1.3019   1.3264   1.3634   1.3877   1.4797   1.5214   1.5259   1.7956
     1.8683   1.8792   1.8973   1.9001   1.9102   1.9753   1.9822   2.0317
     2.0617   2.0735   2.1945   2.4012   2.4064   2.4085   2.4470   2.4515
     2.6433   2.6541   2.6777   2.7100   2.7217   2.7963   2.8418   3.1811
     3.2036   3.2180   3.2818   3.3296   3.3643   3.3780   3.5444   3.5477
     3.5701   3.6171   3.6261   3.7994   3.8065   3.8940   3.9031   4.0005
     4.0227   4.1244   4.1805   4.2441   4.2475   4.2706   4.3020   4.3975
     4.4722   4.4975   4.5212   4.5650   4.6632   4.8054   4.8117   4.8412
     4.8500   4.8525   4.8940   4.9671   4.9891   5.0742   5.0908   5.1946
     5.2016   5.2120   5.2382   5.2620   5.3016   5.4405   5.5257   5.5328
     5.5332   5.5445   5.6500   5.7197   5.7319   5.8369   5.8524   5.8740
     5.8959   5.9064   5.9913   6.0160   6.0172   6.0264   6.0424   6.1380
     6.1471   6.1654   6.2222   6.3061   6.4011   6.4461   6.5143   6.5226
     6.5873   6.6311   6.6532   6.6901   6.7343   6.7465   6.9668   7.0256
     7.0592   7.1228   7.1848   7.1950   7.1965   7.2773   7.3476   7.3543
     7.3945   7.4082   7.5049   7.5547   7.5574   7.5991   7.6629   7.6856
     7.7116   7.7343   7.8546   7.8605   7.9868   8.0134   8.0857   8.1080
     8.1586   8.1882   8.1961   8.2636   8.3128   8.3388   8.3781   8.4472
     8.5010   8.5441   8.5600   8.5813   8.5845   8.6025   8.6209   8.6610
     8.6722   8.6766   8.6988   8.7545   9.1884   9.2322   9.2428   9.2578
     9.2625   9.3710   9.4145   9.4330   9.4417   9.4430   9.5243   9.5285
     9.5810   9.6277   9.7155   9.8691   9.9120  10.3434  10.3805  10.7335

     the Fermi energy is     0.7846 ev

!    total energy              =  -11427.09402106 Ry
     Harris-Foulkes estimate   =  -11427.09402172 Ry
     estimated scf accuracy    <       0.00000067 Ry

     The total energy is the sum of the following terms:

     one-electron contribution = -129707.70733625 Ry
     hartree contribution      =   65677.89092039 Ry
     xc contribution           =   -5523.82301331 Ry
     ewald contribution        =   58126.48229571 Ry
     smearing contrib. (-TS)   =       0.06311241 Ry

     convergence has been achieved in  22 iterations

     negative rho (up, down):  3.085E+00 0.000E+00

     Forces acting on atoms (cartesian axes, Ry/au):

     atom    1 type  1   force =    -0.00096762    0.00016399    0.00833898
     atom    2 type  1   force =    -0.00096260   -0.00022036    0.00805962
     atom    3 type  1   force =    -0.00005782    0.00023024    0.00892290
     atom    4 type  1   force =    -0.00005793   -0.00017084    0.00864203
     atom    5 type  1   force =     0.00009994    0.00026178    0.00897865
     atom    6 type  1   force =     0.00010168   -0.00014073    0.00869741
     atom    7 type  1   force =    -0.00011632    0.00024173    0.00897263
     atom    8 type  1   force =    -0.00011408   -0.00015708    0.00868925
     atom    9 type  1   force =     0.00002770    0.00023877    0.00899976
     atom   10 type  1   force =     0.00002210   -0.00015420    0.00871682
     atom   11 type  1   force =    -0.00014245    0.00024754    0.00908284
     atom   12 type  1   force =    -0.00014309   -0.00013846    0.00880163
     atom   13 type  1   force =     0.00078549    0.00026882    0.00885331
     atom   14 type  1   force =     0.00078733   -0.00011396    0.00857118
     atom   15 type  1   force =    -0.00120674    0.00041724   -0.00540799
     atom   16 type  1   force =    -0.00120747   -0.00007305   -0.00552080
     atom   17 type  1   force =    -0.00007442    0.00038995   -0.00547276
     atom   18 type  1   force =    -0.00007571   -0.00010869   -0.00558987
     atom   19 type  1   force =     0.00004511    0.00039501   -0.00539676
     atom   20 type  1   force =     0.00004673   -0.00010390   -0.00551460
     atom   21 type  1   force =    -0.00019166    0.00040085   -0.00529964
     atom   22 type  1   force =    -0.00018925   -0.00010193   -0.00541506
     atom   23 type  1   force =     0.00004702    0.00039978   -0.00526882
     atom   24 type  1   force =     0.00004573   -0.00010072   -0.00538139
     atom   25 type  1   force =    -0.00016707    0.00038920   -0.00530196
     atom   26 type  1   force =    -0.00016456   -0.00010337   -0.00541289
     atom   27 type  1   force =     0.00105140    0.00039093   -0.00533033
     atom   28 type  1   force =     0.00105165   -0.00010229   -0.00544030
     atom   29 type  1   force =    -0.00052228   -0.00010421    0.00852727
     atom   30 type  1   force =    -0.00052879   -0.00050351    0.00858090
     atom   31 type  1   force =     0.00002806   -0.00012467    0.00870718
     atom   32 type  1   force =     0.00002776   -0.00052379    0.00876254
     atom   33 type  1   force =     0.00010170   -0.00013490    0.00868840
     atom   34 type  1   force =     0.00010454   -0.00053712    0.00874180
     atom   35 type  1   force =    -0.00005446   -0.00012045    0.00875950
     atom   36 type  1   force =    -0.00005155   -0.00052503    0.00881382
     atom   37 type  1   force =    -0.00018690   -0.00013098    0.00875354
     atom   38 type  1   force =    -0.00018332   -0.00052703    0.00880720
     atom   39 type  1   force =     0.00008677   -0.00013789    0.00880862
     atom   40 type  1   force =     0.00008817   -0.00053372    0.00886076
     atom   41 type  1   force =     0.00091429   -0.00021998    0.00806622
     atom   42 type  1   force =     0.00091347   -0.00061285    0.00811713
     atom   43 type  1   force =    -0.00064365   -0.00011247   -0.00547467
     atom   44 type  1   force =    -0.00064479   -0.00061831   -0.00544850
     atom   45 type  1   force =    -0.00001525   -0.00011602   -0.00549069
     atom   46 type  1   force =    -0.00001455   -0.00061921   -0.00546728
     atom   47 type  1   force =     0.00006660   -0.00010620   -0.00538347
     atom   48 type  1   force =     0.00006434   -0.00061168   -0.00536030
     atom   49 type  1   force =    -0.00007445   -0.00010739   -0.00531139
     atom   50 type  1   force =    -0.00007351   -0.00061716   -0.00528531
     atom   51 type  1   force =    -0.00020869   -0.00010667   -0.00531764
     atom   52 type  1   force =    -0.00020392   -0.00061435   -0.00528711
     atom   53 type  1   force =     0.00013475   -0.00011620   -0.00536753
     atom   54 type  1   force =     0.00013333   -0.00062878   -0.00533648
     atom   55 type  1   force =     0.00123347   -0.00007392   -0.00541361
     atom   56 type  1   force =     0.00123617   -0.00057998   -0.00538251
     atom   57 type  1   force =    -0.00087157    0.00068531   -0.00840429
     atom   58 type  1   force =    -0.00086823    0.00023910   -0.00807649
     atom   59 type  1   force =    -0.00007065    0.00063392   -0.00899413
     atom   60 type  1   force =    -0.00007219    0.00018963   -0.00866648
     atom   61 type  1   force =    -0.00002021    0.00060158   -0.00904438
     atom   62 type  1   force =    -0.00002107    0.00016047   -0.00871748
     atom   63 type  1   force =    -0.00023716    0.00062286   -0.00902425
     atom   64 type  1   force =    -0.00023381    0.00017559   -0.00869524
     atom   65 type  1   force =    -0.00000474    0.00062657   -0.00903886
     atom   66 type  1   force =    -0.00000444    0.00017268   -0.00870980
     atom   67 type  1   force =    -0.00007440    0.00061694   -0.00912025
     atom   68 type  1   force =    -0.00007451    0.00015861   -0.00879262
     atom   69 type  1   force =     0.00090832    0.00059245   -0.00890346
     atom   70 type  1   force =     0.00090753    0.00013543   -0.00857586
     atom   71 type  1   force =    -0.00062100    0.00075933    0.00517743
     atom   72 type  1   force =    -0.00062100    0.00022519    0.00533826
     atom   73 type  1   force =    -0.00005220    0.00075994    0.00521328
     atom   74 type  1   force =    -0.00005231    0.00023063    0.00537222
     atom   75 type  1   force =     0.00000069    0.00075123    0.00523121
     atom   76 type  1   force =     0.00000082    0.00022186    0.00539261
     atom   77 type  1   force =    -0.00011198    0.00075957    0.00528321
     atom   78 type  1   force =    -0.00011223    0.00022240    0.00544626
     atom   79 type  1   force =    -0.00019498    0.00075728    0.00531976
     atom   80 type  1   force =    -0.00019671    0.00021910    0.00548162
     atom   81 type  1   force =     0.00018286    0.00076847    0.00529487
     atom   82 type  1   force =     0.00018498    0.00023126    0.00545828
     atom   83 type  1   force =     0.00129341    0.00071662    0.00521205
     atom   84 type  1   force =     0.00128828    0.00018797    0.00537566
     atom   85 type  1   force =    -0.00115996    0.00005412    0.00535086
     atom   86 type  1   force =    -0.00116344   -0.00075204    0.00552146
     atom   87 type  1   force =    -0.00008395    0.00008960    0.00537244
     atom   88 type  1   force =    -0.00008084   -0.00072604    0.00553776
     atom   89 type  1   force =    -0.00001292    0.00008513    0.00537703
     atom   90 type  1   force =    -0.00001285   -0.00073127    0.00554028
     atom   91 type  1   force =    -0.00024463    0.00008043    0.00542193
     atom   92 type  1   force =    -0.00024984   -0.00073648    0.00558688
     atom   93 type  1   force =     0.00003171    0.00008015    0.00547302
     atom   94 type  1   force =     0.00003163   -0.00073641    0.00564240
     atom   95 type  1   force =    -0.00013246    0.00008630    0.00547610
     atom   96 type  1   force =    -0.00013153   -0.00072727    0.00564967
     atom   97 type  1   force =     0.00110941    0.00008554    0.00539509
     atom   98 type  1   force =     0.00111067   -0.00072964    0.00556994
     atom   99 type  1   force =    -0.00047840    0.00011564   -0.00853722
     atom  100 type  1   force =    -0.00047357   -0.00029274   -0.00859972
     atom  101 type  1   force =    -0.00004839    0.00013698   -0.00872213
     atom  102 type  1   force =    -0.00004605   -0.00026825   -0.00878365
     atom  103 type  1   force =    -0.00003385    0.00014715   -0.00869026
     atom  104 type  1   force =    -0.00003752   -0.00025663   -0.00875132
     atom  105 type  1   force =    -0.00013178    0.00013433   -0.00874098
     atom  106 type  1   force =    -0.00013575   -0.00027479   -0.00880421
     atom  107 type  1   force =    -0.00015796    0.00014445   -0.00873167
     atom  108 type  1   force =    -0.00016053   -0.00026539   -0.00879557
     atom  109 type  1   force =     0.00018847    0.00015044   -0.00879205
     atom  110 type  1   force =     0.00018817   -0.00025973   -0.00885500
     atom  111 type  1   force =     0.00102930    0.00023284   -0.00806206
     atom  112 type  1   force =     0.00103495   -0.00017019   -0.00812438

     Total force =     0.076973     Total SCF correction =     0.004745

     Writing output data file ./ausurf.save/
 
     init_run     :     10.18s CPU     10.62s WALL (       1 calls)
     electrons    :    463.17s CPU    477.58s WALL (       1 calls)
     forces       :      5.44s CPU      5.60s WALL (       1 calls)

     Called by init_run:
     wfcinit      :      8.31s CPU      8.66s WALL (       1 calls)
     potinit      :      0.21s CPU      0.22s WALL (       1 calls)
     hinit0       :      0.38s CPU      0.40s WALL (       1 calls)

     Called by electrons:
     c_bands      :    407.95s CPU    419.33s WALL (      23 calls)
     sum_band     :     49.56s CPU     51.00s WALL (      23 calls)
     v_of_rho     :      1.69s CPU      1.82s WALL (      23 calls)
     newd         :      3.56s CPU      4.50s WALL (      23 calls)
     mix_rho      :      0.35s CPU      0.36s WALL (      23 calls)

     Called by c_bands:
     init_us_2    :      2.27s CPU      2.30s WALL (      96 calls)
     crmmdiagg    :    181.62s CPU    187.46s WALL (      46 calls)
     wfcrot       :    160.08s CPU    164.55s WALL (      44 calls)
     gsorth       :     71.10s CPU     72.14s WALL (      46 calls)

     Called by sum_band:
     sum_band:bec :      0.60s CPU      0.62s WALL (      46 calls)
     addusdens    :      3.05s CPU      4.03s WALL (      23 calls)

     Called by *rmmdiagg:
     h_psi        :    211.24s CPU    215.51s WALL (     232 calls)
     s_psi        :     46.17s CPU     46.87s WALL (     232 calls)
     cdiaghg      :      6.45s CPU      6.80s WALL (      44 calls)

     Called by h_psi:
     h_psi:calbec :     54.61s CPU     55.03s WALL (     232 calls)
     vloc_psi     :    108.34s CPU    111.00s WALL (     232 calls)
     add_vuspsi   :     46.66s CPU     47.67s WALL (     232 calls)

     General routines
     calbec       :     79.48s CPU     79.93s WALL (     286 calls)
     fft          :      1.39s CPU      1.41s WALL (     309 calls)
     ffts         :      0.08s CPU      0.08s WALL (      46 calls)
     fftw         :    121.52s CPU    124.35s WALL (  223616 calls)
     interpolate  :      0.15s CPU      0.15s WALL (      23 calls)
 
     Parallel routines
     fft_scatt_xy :     11.39s CPU     11.64s WALL (  223971 calls)
     fft_scatt_yz :     73.09s CPU     75.06s WALL (  223971 calls)
 
     PWSCF        :   8m 1.42s CPU   9m 0.01s WALL

 
   This run was terminated on:  14:25:30  16Jul2020            

=------------------------------------------------------------------------------=
   JOB DONE.
=------------------------------------------------------------------------------=
