
     Program PWSCF v.6.5 starts on 16Jul2020 at 14:11:39 

     This program is part of the open-source Quantum ESPRESSO suite
     for quantum simulation of materials; please cite
         "P. Giannozzi et al., J. Phys.:Condens. Matter 21 395502 (2009);
         "P. Giannozzi et al., J. Phys.:Condens. Matter 29 465901 (2017);
          URL http://www.quantum-espresso.org", 
     in publications or presentations arising from this work. More details at
     http://www.quantum-espresso.org/quote

     Parallel version (MPI & OpenMP), running on     144 processor cores
     Number of MPI processes:               144
     Threads/MPI process:                     1

     MPI processes distributed on     4 nodes
     R & G space division:  proc/nbgrp/npool/nimage =     144
     Reading input from ausurf_rmm.in

     Current dimensions of program PWSCF are:
     Max number of different atomic species (ntypx) = 10
     Max number of k-points (npk) =  40000
     Max angular momentum in pseudopotentials (lmaxx) =  3

     Subspace diagonalization in iterative solution of the eigenvalue problem:
     one sub-group per band group will be used
     scalapack distributed-memory algorithm (size of sub-group: 12* 12 procs)

 
     Parallelization info
     --------------------
     sticks:   dense  smooth     PW     G-vecs:    dense   smooth      PW
     Min          82      41     10                14984     5293     690
     Max          83      42     11                14994     5305     709
     Sum       11837    5915   1537              2158381   763307  100747
 

     Title: 
      DEISA pw benchmark                                                        


     bravais-lattice index     =            8
     lattice parameter (alat)  =      38.7583  a.u.
     unit-cell volume          =   45191.4962 (a.u.)^3
     number of atoms/cell      =          112
     number of atomic types    =            1
     number of electrons       =      1232.00
     number of Kohn-Sham states=          800
     kinetic-energy cutoff     =      25.0000  Ry
     charge density cutoff     =     200.0000  Ry
     convergence threshold     =      1.0E-06
     mixing beta               =       0.7000
     number of iterations used =            8  plain     mixing
     Exchange-correlation=  SLA  PW   PBE  PBE
                           (   1   4   3   4   0   0   0)

     celldm(1)=  38.758300  celldm(2)=   0.494393  celldm(3)=   1.569966
     celldm(4)=   0.000000  celldm(5)=   0.000000  celldm(6)=   0.000000

     crystal axes: (cart. coord. in units of alat)
               a(1) = (   1.000000   0.000000   0.000000 )  
               a(2) = (   0.000000   0.494393   0.000000 )  
               a(3) = (   0.000000   0.000000   1.569966 )  

     reciprocal axes: (cart. coord. in units 2 pi/alat)
               b(1) = (  1.000000  0.000000  0.000000 )  
               b(2) = (  0.000000  2.022682  0.000000 )  
               b(3) = (  0.000000  0.000000  0.636956 )  


     PseudoPot. # 1 for Au read from file:
     ./Au.pbe-nd-van.UPF
     MD5 check sum: deb5c07af10777505a79e28f5b4b4115
     Pseudo is Ultrasoft + core correction, Zval = 11.0
     Generated by new atomic code, or converted to UPF format
     Using radial grid of  985 points,  3 beta functions with: 
                l(1) =   1
                l(2) =   2
                l(3) =   2
     Q(r) pseudized with  8 coefficients,  rinner =    1.100   1.100   1.100
                                                       1.100   1.100

     atomic species   valence    mass     pseudopotential
        AU            11.00   196.96000     Au( 1.00)

     No symmetry found



   Cartesian axes

     site n.     atom                  positions (alat units)
         1           AU  tau(   1) = (   1.4278395   1.9784974   0.3497317  )
         2           AU  tau(   2) = (   1.4278395   1.7313987   0.3497317  )
         3           AU  tau(   3) = (   1.5706478   1.9784974   0.3497317  )
         4           AU  tau(   4) = (   1.5706478   1.7313987   0.3497317  )
         5           AU  tau(   5) = (   1.7134072   1.9784974   0.3497317  )
         6           AU  tau(   6) = (   1.7134072   1.7313987   0.3497317  )
         7           AU  tau(   7) = (   1.8562156   1.9784974   0.3497317  )
         8           AU  tau(   8) = (   1.8562156   1.7313987   0.3497317  )
         9           AU  tau(   9) = (   1.9989753   1.9784974   0.3497317  )
        10           AU  tau(  10) = (   1.9989753   1.7313987   0.3497317  )
        11           AU  tau(  11) = (   2.1417836   1.9784974   0.3497317  )
        12           AU  tau(  12) = (   2.1417836   1.7313987   0.3497317  )
        13           AU  tau(  13) = (   2.2845431   1.9784974   0.3497317  )
        14           AU  tau(  14) = (   2.2845431   1.7313987   0.3497317  )
        15           AU  tau(  15) = (   1.4278395   2.0609450   0.2331545  )
        16           AU  tau(  16) = (   1.4278395   1.8138461   0.2331545  )
        17           AU  tau(  17) = (   1.5706478   2.0609450   0.2331545  )
        18           AU  tau(  18) = (   1.5706478   1.8138461   0.2331545  )
        19           AU  tau(  19) = (   1.7134072   2.0609450   0.2331545  )
        20           AU  tau(  20) = (   1.7134072   1.8138461   0.2331545  )
        21           AU  tau(  21) = (   1.8562156   2.0609450   0.2331545  )
        22           AU  tau(  22) = (   1.8562156   1.8138461   0.2331545  )
        23           AU  tau(  23) = (   1.9989753   2.0609450   0.2331545  )
        24           AU  tau(  24) = (   1.9989753   1.8138461   0.2331545  )
        25           AU  tau(  25) = (   2.1417836   2.0609450   0.2331545  )
        26           AU  tau(  26) = (   2.1417836   1.8138461   0.2331545  )
        27           AU  tau(  27) = (   2.2845431   2.0609450   0.2331545  )
        28           AU  tau(  28) = (   2.2845431   1.8138461   0.2331545  )
        29           AU  tau(  29) = (   1.4992193   2.1021445   0.3497317  )
        30           AU  tau(  30) = (   1.4992193   1.8550456   0.3497317  )
        31           AU  tau(  31) = (   1.6420276   2.1021445   0.3497317  )
        32           AU  tau(  32) = (   1.6420276   1.8550456   0.3497317  )
        33           AU  tau(  33) = (   1.7847871   2.1021445   0.3497317  )
        34           AU  tau(  34) = (   1.7847871   1.8550456   0.3497317  )
        35           AU  tau(  35) = (   1.9275954   2.1021445   0.3497317  )
        36           AU  tau(  36) = (   1.9275954   1.8550456   0.3497317  )
        37           AU  tau(  37) = (   2.0704038   2.1021445   0.3497317  )
        38           AU  tau(  38) = (   2.0704038   1.8550456   0.3497317  )
        39           AU  tau(  39) = (   2.2131632   2.1021445   0.3497317  )
        40           AU  tau(  40) = (   2.2131632   1.8550456   0.3497317  )
        41           AU  tau(  41) = (   2.3559716   2.1021445   0.3497317  )
        42           AU  tau(  42) = (   2.3559716   1.8550456   0.3497317  )
        43           AU  tau(  43) = (   1.4992193   1.6901992   0.2331545  )
        44           AU  tau(  44) = (   1.4992193   1.9374930   0.2331545  )
        45           AU  tau(  45) = (   1.6420276   1.6901992   0.2331545  )
        46           AU  tau(  46) = (   1.6420276   1.9374930   0.2331545  )
        47           AU  tau(  47) = (   1.7847871   1.6901992   0.2331545  )
        48           AU  tau(  48) = (   1.7847871   1.9374930   0.2331545  )
        49           AU  tau(  49) = (   1.9275954   1.6901992   0.2331545  )
        50           AU  tau(  50) = (   1.9275954   1.9374930   0.2331545  )
        51           AU  tau(  51) = (   2.0704038   1.6901992   0.2331545  )
        52           AU  tau(  52) = (   2.0704038   1.9374930   0.2331545  )
        53           AU  tau(  53) = (   2.2131632   1.6901992   0.2331545  )
        54           AU  tau(  54) = (   2.2131632   1.9374930   0.2331545  )
        55           AU  tau(  55) = (   2.3559716   1.6901992   0.2331545  )
        56           AU  tau(  56) = (   2.3559716   1.9374930   0.2331545  )
        57           AU  tau(  57) = (   1.4278395   1.9784974   0.0000000  )
        58           AU  tau(  58) = (   1.4278395   1.7313987   0.0000000  )
        59           AU  tau(  59) = (   1.5706478   1.9784974   0.0000000  )
        60           AU  tau(  60) = (   1.5706478   1.7313987   0.0000000  )
        61           AU  tau(  61) = (   1.7134072   1.9784974   0.0000000  )
        62           AU  tau(  62) = (   1.7134072   1.7313987   0.0000000  )
        63           AU  tau(  63) = (   1.8562156   1.9784974   0.0000000  )
        64           AU  tau(  64) = (   1.8562156   1.7313987   0.0000000  )
        65           AU  tau(  65) = (   1.9989753   1.9784974   0.0000000  )
        66           AU  tau(  66) = (   1.9989753   1.7313987   0.0000000  )
        67           AU  tau(  67) = (   2.1417836   1.9784974   0.0000000  )
        68           AU  tau(  68) = (   2.1417836   1.7313987   0.0000000  )
        69           AU  tau(  69) = (   2.2845431   1.9784974   0.0000000  )
        70           AU  tau(  70) = (   2.2845431   1.7313987   0.0000000  )
        71           AU  tau(  71) = (   1.4992193   2.0196968   0.1165772  )
        72           AU  tau(  72) = (   1.4992193   1.7725979   0.1165772  )
        73           AU  tau(  73) = (   1.6420276   2.0196968   0.1165772  )
        74           AU  tau(  74) = (   1.6420276   1.7725979   0.1165772  )
        75           AU  tau(  75) = (   1.7847871   2.0196968   0.1165772  )
        76           AU  tau(  76) = (   1.7847871   1.7725979   0.1165772  )
        77           AU  tau(  77) = (   1.9275954   2.0196968   0.1165772  )
        78           AU  tau(  78) = (   1.9275954   1.7725979   0.1165772  )
        79           AU  tau(  79) = (   2.0704038   2.0196968   0.1165772  )
        80           AU  tau(  80) = (   2.0704038   1.7725979   0.1165772  )
        81           AU  tau(  81) = (   2.2131632   2.0196968   0.1165772  )
        82           AU  tau(  82) = (   2.2131632   1.7725979   0.1165772  )
        83           AU  tau(  83) = (   2.3559716   2.0196968   0.1165772  )
        84           AU  tau(  84) = (   2.3559716   1.7725979   0.1165772  )
        85           AU  tau(  85) = (   1.4278395   2.1433437   0.1165772  )
        86           AU  tau(  86) = (   1.4278395   1.8962938   0.1165772  )
        87           AU  tau(  87) = (   1.5706478   2.1433437   0.1165772  )
        88           AU  tau(  88) = (   1.5706478   1.8962938   0.1165772  )
        89           AU  tau(  89) = (   1.7134072   2.1433437   0.1165772  )
        90           AU  tau(  90) = (   1.7134072   1.8962938   0.1165772  )
        91           AU  tau(  91) = (   1.8562156   2.1433437   0.1165772  )
        92           AU  tau(  92) = (   1.8562156   1.8962938   0.1165772  )
        93           AU  tau(  93) = (   1.9989753   2.1433437   0.1165772  )
        94           AU  tau(  94) = (   1.9989753   1.8962938   0.1165772  )
        95           AU  tau(  95) = (   2.1417836   2.1433437   0.1165772  )
        96           AU  tau(  96) = (   2.1417836   1.8962938   0.1165772  )
        97           AU  tau(  97) = (   2.2845431   2.1433437   0.1165772  )
        98           AU  tau(  98) = (   2.2845431   1.8962938   0.1165772  )
        99           AU  tau(  99) = (   1.4992193   2.1021445   0.0000000  )
       100           AU  tau( 100) = (   1.4992193   1.8550456   0.0000000  )
       101           AU  tau( 101) = (   1.6420276   2.1021445   0.0000000  )
       102           AU  tau( 102) = (   1.6420276   1.8550456   0.0000000  )
       103           AU  tau( 103) = (   1.7847871   2.1021445   0.0000000  )
       104           AU  tau( 104) = (   1.7847871   1.8550456   0.0000000  )
       105           AU  tau( 105) = (   1.9275954   2.1021445   0.0000000  )
       106           AU  tau( 106) = (   1.9275954   1.8550456   0.0000000  )
       107           AU  tau( 107) = (   2.0704038   2.1021445   0.0000000  )
       108           AU  tau( 108) = (   2.0704038   1.8550456   0.0000000  )
       109           AU  tau( 109) = (   2.2131632   2.1021445   0.0000000  )
       110           AU  tau( 110) = (   2.2131632   1.8550456   0.0000000  )
       111           AU  tau( 111) = (   2.3559716   2.1021445   0.0000000  )
       112           AU  tau( 112) = (   2.3559716   1.8550456   0.0000000  )

     number of k points=     2  Marzari-Vanderbilt smearing, width (Ry)=  0.0500
                       cart. coord. in units 2pi/alat
        k(    1) = (   0.2500000   0.5056706   0.0000000), wk =   1.0000000
        k(    2) = (  -0.2500000   0.5056706   0.0000000), wk =   1.0000000

     Dense  grid:  2158381 G-vectors     FFT dimensions: ( 180,  90, 288)

     Smooth grid:   763307 G-vectors     FFT dimensions: ( 125,  64, 200)

     Estimated max dynamical RAM per process >     204.68 MB

     Estimated total dynamical RAM >      28.78 GB

     Initial potential from superposition of free atoms

     starting charge 1230.69946, renormalised to 1232.00000

     negative rho (up, down):  3.043E+00 0.000E+00
     Starting wfcs are 1008 randomized atomic wfcs

     total cpu time spent up to now is       13.6 secs

     Self-consistent Calculation

     iteration #  1     ecut=    25.00 Ry     beta= 0.70
     RMM-DIIS diagonalization
     ethr =  1.00E-02,  avg # of iterations =  1.9

     Threshold (ethr) on eigenvalues was too large:
     Diagonalizing with lowered threshold

     RMM-DIIS diagonalization
     ethr =  3.12E-04,  avg # of iterations =  2.8

     negative rho (up, down):  2.995E+00 0.000E+00

     total cpu time spent up to now is       62.5 secs

     total energy              =  -11423.76711511 Ry
     Harris-Foulkes estimate   =  -11428.38249114 Ry
     estimated scf accuracy    <       5.88021576 Ry

     iteration #  2     ecut=    25.00 Ry     beta= 0.70
     RMM-DIIS diagonalization
     ethr =  4.77E-04,  avg # of iterations =  4.0

     negative rho (up, down):  3.010E+00 0.000E+00

     total cpu time spent up to now is       92.6 secs

     total energy              =  -11411.92613773 Ry
     Harris-Foulkes estimate   =  -11438.87789236 Ry
     estimated scf accuracy    <     153.57272558 Ry

     iteration #  3     ecut=    25.00 Ry     beta= 0.70
     RMM-DIIS diagonalization
     ethr =  4.77E-04,  avg # of iterations =  3.6

     negative rho (up, down):  3.050E+00 0.000E+00

     total cpu time spent up to now is      120.2 secs

     total energy              =  -11426.42458830 Ry
     Harris-Foulkes estimate   =  -11427.76967804 Ry
     estimated scf accuracy    <       3.64567784 Ry

     iteration #  4     ecut=    25.00 Ry     beta= 0.70
     RMM-DIIS diagonalization
     ethr =  2.96E-04,  avg # of iterations =  2.7

     negative rho (up, down):  3.057E+00 0.000E+00

     total cpu time spent up to now is      141.9 secs

     total energy              =  -11426.60734952 Ry
     Harris-Foulkes estimate   =  -11427.22846940 Ry
     estimated scf accuracy    <       3.43391675 Ry

     iteration #  5     ecut=    25.00 Ry     beta= 0.70
     RMM-DIIS diagonalization
     ethr =  2.79E-04,  avg # of iterations =  2.6

     negative rho (up, down):  3.074E+00 0.000E+00

     total cpu time spent up to now is      162.3 secs

     total energy              =  -11426.86842096 Ry
     Harris-Foulkes estimate   =  -11427.31703502 Ry
     estimated scf accuracy    <       4.45277029 Ry

     iteration #  6     ecut=    25.00 Ry     beta= 0.70
     RMM-DIIS diagonalization
     ethr =  2.79E-04,  avg # of iterations =  2.5

     negative rho (up, down):  3.079E+00 0.000E+00

     total cpu time spent up to now is      182.4 secs

     total energy              =  -11427.07271322 Ry
     Harris-Foulkes estimate   =  -11427.09103738 Ry
     estimated scf accuracy    <       0.07567626 Ry

     iteration #  7     ecut=    25.00 Ry     beta= 0.70
     RMM-DIIS diagonalization
     ethr =  6.14E-06,  avg # of iterations =  3.6

     negative rho (up, down):  3.083E+00 0.000E+00

     total cpu time spent up to now is      209.9 secs

     total energy              =  -11427.07539738 Ry
     Harris-Foulkes estimate   =  -11427.11230483 Ry
     estimated scf accuracy    <       0.17445591 Ry

     iteration #  8     ecut=    25.00 Ry     beta= 0.70
     RMM-DIIS diagonalization
     ethr =  6.14E-06,  avg # of iterations =  2.8

     negative rho (up, down):  3.084E+00 0.000E+00

     total cpu time spent up to now is      231.6 secs

     total energy              =  -11427.09072742 Ry
     Harris-Foulkes estimate   =  -11427.09481381 Ry
     estimated scf accuracy    <       0.03242130 Ry

     iteration #  9     ecut=    25.00 Ry     beta= 0.70
     RMM-DIIS diagonalization
     ethr =  2.63E-06,  avg # of iterations =  2.7

     negative rho (up, down):  3.084E+00 0.000E+00

     total cpu time spent up to now is      253.3 secs

     total energy              =  -11427.09258122 Ry
     Harris-Foulkes estimate   =  -11427.09451321 Ry
     estimated scf accuracy    <       0.01620708 Ry

     iteration # 10     ecut=    25.00 Ry     beta= 0.70
     RMM-DIIS diagonalization
     ethr =  1.32E-06,  avg # of iterations =  2.7

     negative rho (up, down):  3.083E+00 0.000E+00

     total cpu time spent up to now is      274.8 secs

     total energy              =  -11427.09308470 Ry
     Harris-Foulkes estimate   =  -11427.09442498 Ry
     estimated scf accuracy    <       0.00665610 Ry

     iteration # 11     ecut=    25.00 Ry     beta= 0.70
     RMM-DIIS diagonalization
     ethr =  5.40E-07,  avg # of iterations =  2.7

     negative rho (up, down):  3.084E+00 0.000E+00

     total cpu time spent up to now is      296.4 secs

     total energy              =  -11427.09348215 Ry
     Harris-Foulkes estimate   =  -11427.09429206 Ry
     estimated scf accuracy    <       0.00365111 Ry

     iteration # 12     ecut=    25.00 Ry     beta= 0.70
     RMM-DIIS diagonalization
     ethr =  2.96E-07,  avg # of iterations =  2.7

     negative rho (up, down):  3.084E+00 0.000E+00

     total cpu time spent up to now is      317.7 secs

     total energy              =  -11427.09384316 Ry
     Harris-Foulkes estimate   =  -11427.09402411 Ry
     estimated scf accuracy    <       0.00046079 Ry

     iteration # 13     ecut=    25.00 Ry     beta= 0.70
     RMM-DIIS diagonalization
     ethr =  3.74E-08,  avg # of iterations =  3.6

     negative rho (up, down):  3.084E+00 0.000E+00

     total cpu time spent up to now is      345.0 secs

     total energy              =  -11427.09373495 Ry
     Harris-Foulkes estimate   =  -11427.09419941 Ry
     estimated scf accuracy    <       0.00376388 Ry

     iteration # 14     ecut=    25.00 Ry     beta= 0.70
     RMM-DIIS diagonalization
     ethr =  3.74E-08,  avg # of iterations =  2.7

     negative rho (up, down):  3.085E+00 0.000E+00

     total cpu time spent up to now is      366.2 secs

     total energy              =  -11427.09395231 Ry
     Harris-Foulkes estimate   =  -11427.09407881 Ry
     estimated scf accuracy    <       0.00099758 Ry

     iteration # 15     ecut=    25.00 Ry     beta= 0.70
     RMM-DIIS diagonalization
     ethr =  3.74E-08,  avg # of iterations =  2.7

     negative rho (up, down):  3.085E+00 0.000E+00

     total cpu time spent up to now is      387.3 secs

     total energy              =  -11427.09395688 Ry
     Harris-Foulkes estimate   =  -11427.09406936 Ry
     estimated scf accuracy    <       0.00113700 Ry

     iteration # 16     ecut=    25.00 Ry     beta= 0.70
     RMM-DIIS diagonalization
     ethr =  3.74E-08,  avg # of iterations =  2.7

     negative rho (up, down):  3.085E+00 0.000E+00

     total cpu time spent up to now is      408.5 secs

     total energy              =  -11427.09398973 Ry
     Harris-Foulkes estimate   =  -11427.09404194 Ry
     estimated scf accuracy    <       0.00024198 Ry

     iteration # 17     ecut=    25.00 Ry     beta= 0.70
     RMM-DIIS diagonalization
     ethr =  1.96E-08,  avg # of iterations =  2.7

     negative rho (up, down):  3.085E+00 0.000E+00

     total cpu time spent up to now is      434.2 secs

     total energy              =  -11427.09399477 Ry
     Harris-Foulkes estimate   =  -11427.09404364 Ry
     estimated scf accuracy    <       0.00021634 Ry

     iteration # 18     ecut=    25.00 Ry     beta= 0.70
     RMM-DIIS diagonalization
     ethr =  1.76E-08,  avg # of iterations =  2.7

     negative rho (up, down):  3.085E+00 0.000E+00

     total cpu time spent up to now is      456.5 secs

     total energy              =  -11427.09400539 Ry
     Harris-Foulkes estimate   =  -11427.09403216 Ry
     estimated scf accuracy    <       0.00020410 Ry

     iteration # 19     ecut=    25.00 Ry     beta= 0.70
     RMM-DIIS diagonalization
     ethr =  1.66E-08,  avg # of iterations =  2.7

     negative rho (up, down):  3.085E+00 0.000E+00

     total cpu time spent up to now is      477.5 secs

     total energy              =  -11427.09401420 Ry
     Harris-Foulkes estimate   =  -11427.09402630 Ry
     estimated scf accuracy    <       0.00010672 Ry

     iteration # 20     ecut=    25.00 Ry     beta= 0.70
     RMM-DIIS diagonalization
     ethr =  8.66E-09,  avg # of iterations =  2.7

     negative rho (up, down):  3.085E+00 0.000E+00

     total cpu time spent up to now is      498.5 secs

     total energy              =  -11427.09401818 Ry
     Harris-Foulkes estimate   =  -11427.09402453 Ry
     estimated scf accuracy    <       0.00003696 Ry

     iteration # 21     ecut=    25.00 Ry     beta= 0.70
     RMM-DIIS diagonalization
     ethr =  3.00E-09,  avg # of iterations =  2.7

     negative rho (up, down):  3.085E+00 0.000E+00

     total cpu time spent up to now is      521.0 secs

     total energy              =  -11427.09401762 Ry
     Harris-Foulkes estimate   =  -11427.09401880 Ry
     estimated scf accuracy    <       0.00000512 Ry

     iteration # 22     ecut=    25.00 Ry     beta= 0.70
     RMM-DIIS diagonalization
     ethr =  4.15E-10,  avg # of iterations =  2.7

     negative rho (up, down):  3.085E+00 0.000E+00

     total cpu time spent up to now is      542.7 secs

     End of self-consistent calculation

          k = 0.2500 0.5057 0.0000 ( 95386 PWs)   bands (ev):

    -8.0046  -7.7852  -7.3692  -7.1562  -6.9586  -6.8863  -6.8073  -6.6745
    -6.6106  -6.2898  -6.2192  -6.1888  -6.1049  -6.0371  -5.9300  -5.9277
    -5.8885  -5.8389  -5.8308  -5.8248  -5.7937  -5.7358  -5.7238  -5.6812
    -5.6673  -5.6493  -5.6452  -5.6399  -5.5496  -5.5382  -5.5307  -5.5225
    -5.5162  -5.5070  -5.4890  -5.4810  -5.4628  -5.4593  -5.4281  -5.3750
    -5.3688  -5.3535  -5.3513  -5.3169  -5.3097  -5.2937  -5.2910  -5.2335
    -5.2325  -5.2324  -5.2280  -5.2181  -5.1995  -5.1784  -5.1552  -5.1445
    -5.1296  -5.1242  -5.1155  -5.1139  -5.1103  -5.1090  -5.0878  -5.0673
    -5.0645  -5.0568  -5.0557  -5.0487  -5.0405  -5.0375  -5.0302  -4.9875
    -4.9818  -4.9667  -4.9635  -4.9479  -4.9340  -4.9322  -4.9286  -4.9266
    -4.9174  -4.9157  -4.9067  -4.9037  -4.8856  -4.8851  -4.8815  -4.8716
    -4.8716  -4.8619  -4.8593  -4.8485  -4.8278  -4.8267  -4.8245  -4.8219
    -4.7416  -4.7391  -4.7374  -4.7365  -4.7327  -4.7253  -4.7209  -4.7207
    -4.7200  -4.7118  -4.6993  -4.6846  -4.6740  -4.6163  -4.5998  -4.5968
    -4.5931  -4.5848  -4.5622  -4.5608  -4.5572  -4.5265  -4.4703  -4.4693
    -4.4507  -4.4135  -4.3977  -4.3949  -4.3933  -4.3930  -4.3915  -4.3851
    -4.3551  -4.3454  -4.3448  -4.3368  -4.3254  -4.3227  -4.3199  -4.3033
    -4.3018  -4.2736  -4.2642  -4.2571  -4.2474  -4.2449  -4.2292  -4.2103
    -4.1935  -4.1676  -4.1559  -4.1548  -4.1543  -4.1528  -4.1480  -4.1393
    -4.1370  -4.1042  -4.0969  -4.0832  -4.0772  -4.0760  -4.0696  -4.0541
    -4.0503  -4.0350  -4.0304  -4.0238  -4.0211  -4.0170  -4.0082  -3.9936
    -3.9865  -3.9704  -3.9584  -3.9273  -3.9137  -3.8983  -3.8928  -3.8893
    -3.8707  -3.8704  -3.8609  -3.8371  -3.8363  -3.8327  -3.8162  -3.8081
    -3.7857  -3.7798  -3.7389  -3.7355  -3.7262  -3.7238  -3.7146  -3.7099
    -3.7007  -3.6850  -3.6805  -3.6709  -3.6587  -3.6402  -3.6189  -3.6189
    -3.6170  -3.6159  -3.6053  -3.6015  -3.5988  -3.5949  -3.5914  -3.5794
    -3.5695  -3.5667  -3.5642  -3.5592  -3.5572  -3.5506  -3.5456  -3.5446
    -3.5432  -3.5339  -3.5233  -3.4920  -3.4820  -3.4560  -3.4537  -3.4426
    -3.4422  -3.4402  -3.4389  -3.4258  -3.4211  -3.4125  -3.4048  -3.3967
    -3.3876  -3.3794  -3.3737  -3.3717  -3.3701  -3.3692  -3.3640  -3.3560
    -3.3523  -3.3371  -3.3354  -3.3266  -3.3258  -3.3241  -3.3197  -3.3168
    -3.3131  -3.3127  -3.3089  -3.3083  -3.2994  -3.2966  -3.2916  -3.2858
    -3.2811  -3.2792  -3.2588  -3.2495  -3.2465  -3.2435  -3.2379  -3.2285
    -3.2194  -3.2186  -3.2139  -3.2099  -3.2019  -3.1995  -3.1887  -3.1802
    -3.1787  -3.1730  -3.1718  -3.1681  -3.1666  -3.1589  -3.1578  -3.1456
    -3.1454  -3.1213  -3.1209  -3.1103  -3.0980  -3.0903  -3.0841  -3.0577
    -3.0410  -3.0397  -3.0342  -3.0330  -3.0259  -3.0236  -3.0228  -3.0178
    -3.0170  -3.0160  -3.0153  -3.0088  -3.0021  -3.0012  -2.9890  -2.9845
    -2.9815  -2.9805  -2.9798  -2.9747  -2.9746  -2.9708  -2.9683  -2.9505
    -2.9148  -2.9128  -2.8898  -2.8755  -2.8739  -2.8621  -2.8594  -2.8490
    -2.8473  -2.8277  -2.8217  -2.8202  -2.7994  -2.7959  -2.7953  -2.7828
    -2.7794  -2.7751  -2.7671  -2.7638  -2.7499  -2.7489  -2.7465  -2.7418
    -2.7230  -2.7222  -2.7204  -2.7177  -2.6625  -2.6541  -2.6459  -2.6364
    -2.6293  -2.6258  -2.6212  -2.5953  -2.5798  -2.5695  -2.5671  -2.5666
    -2.5632  -2.5588  -2.5528  -2.5405  -2.5278  -2.5249  -2.5192  -2.5158
    -2.5087  -2.5069  -2.5008  -2.4926  -2.4896  -2.4860  -2.4802  -2.4790
    -2.4729  -2.4721  -2.4663  -2.4654  -2.4595  -2.4488  -2.4350  -2.4344
    -2.4062  -2.3998  -2.3980  -2.3740  -2.3700  -2.3630  -2.3556  -2.3555
    -2.3484  -2.3450  -2.3353  -2.3321  -2.3150  -2.3001  -2.2925  -2.2716
    -2.2682  -2.2664  -2.2634  -2.2485  -2.2430  -2.2333  -2.2314  -2.2147
    -2.2123  -2.2052  -2.2050  -2.1976  -2.1968  -2.1780  -2.1446  -2.1358
    -2.1301  -2.1056  -2.1021  -2.0845  -2.0672  -2.0482  -2.0472  -2.0439
    -2.0371  -2.0316  -2.0020  -1.9980  -1.9945  -1.9638  -1.9604  -1.9570
    -1.9558  -1.9516  -1.9478  -1.9450  -1.9390  -1.9385  -1.9367  -1.9306
    -1.9297  -1.9273  -1.9168  -1.9119  -1.9075  -1.9018  -1.8644  -1.8554
    -1.8547  -1.8383  -1.8308  -1.8270  -1.8229  -1.8168  -1.8159  -1.8133
    -1.8112  -1.8011  -1.7999  -1.7987  -1.7931  -1.7662  -1.7593  -1.7583
    -1.7572  -1.7480  -1.7429  -1.7422  -1.7363  -1.7362  -1.7263  -1.7236
    -1.7060  -1.7044  -1.6986  -1.6977  -1.6878  -1.6742  -1.6699  -1.6655
    -1.6632  -1.6584  -1.6505  -1.6285  -1.6128  -1.6035  -1.5991  -1.5972
    -1.5789  -1.5757  -1.5752  -1.5737  -1.5599  -1.5445  -1.5041  -1.4989
    -1.4924  -1.4878  -1.4797  -1.4788  -1.4703  -1.4670  -1.4595  -1.4578
    -1.4508  -1.4441  -1.4333  -1.4322  -1.4259  -1.4130  -1.4124  -1.4071
    -1.3994  -1.3814  -1.3715  -1.3682  -1.3627  -1.3577  -1.3451  -1.3393
    -1.3275  -1.3254  -1.3216  -1.3071  -1.3024  -1.2974  -1.2930  -1.2870
    -1.2869  -1.2776  -1.2763  -1.2668  -1.2643  -1.2551  -1.2534  -1.2494
    -1.2414  -1.2394  -1.2277  -1.2274  -1.2197  -1.2190  -1.2189  -1.2186
    -1.2151  -1.2085  -1.2057  -1.1777  -1.1764  -1.1704  -1.1563  -1.1552
    -1.1447  -1.1399  -1.1376  -1.1333  -1.1298  -1.1248  -1.1242  -1.1215
    -1.1186  -1.1073  -1.1057  -1.0982  -1.0871  -1.0826  -1.0798  -1.0778
    -1.0769  -1.0755  -1.0722  -1.0626  -1.0577  -1.0547  -1.0534  -1.0506
    -1.0499  -1.0439  -1.0042  -0.9808  -0.9695  -0.9647  -0.9520  -0.9370
    -0.9356  -0.9291  -0.9243  -0.9205  -0.9158  -0.9075  -0.9001  -0.8817
    -0.8778  -0.8612  -0.8298  -0.8278  -0.8257  -0.7656  -0.6679  -0.6314
    -0.6013  -0.5943  -0.5465  -0.4526  -0.3794  -0.1933  -0.1600  -0.1187
    -0.0033   0.0223   0.0575   0.1555   0.1623   0.1922   0.2708   0.2885
     0.3158   0.3349   0.5889   0.5924   0.6433   0.6721   0.7322   0.7785
     0.8029   0.8037   0.9243   0.9709   0.9833   1.1556   1.1642   1.1987
     1.3020   1.3265   1.3635   1.3878   1.4798   1.5215   1.5260   1.7956
     1.8684   1.8793   1.8974   1.9002   1.9103   1.9754   1.9823   2.0317
     2.0618   2.0736   2.1946   2.4012   2.4065   2.4085   2.4471   2.4516
     2.6434   2.6542   2.6778   2.7101   2.7218   2.7964   2.8418   3.1812
     3.2037   3.2181   3.2819   3.3297   3.3644   3.3781   3.5445   3.5477
     3.5702   3.6171   3.6261   3.7995   3.8066   3.8941   3.9032   4.0006
     4.0228   4.1245   4.1806   4.2441   4.2476   4.2706   4.3020   4.3976
     4.4723   4.4976   4.5213   4.5651   4.6633   4.8054   4.8117   4.8412
     4.8500   4.8526   4.8941   4.9672   4.9892   5.0743   5.0909   5.1947
     5.2017   5.2121   5.2383   5.2621   5.3017   5.4406   5.5258   5.5329
     5.5333   5.5446   5.6501   5.7198   5.7320   5.8370   5.8525   5.8740
     5.8959   5.9066   5.9914   6.0159   6.0168   6.0266   6.0424   6.1383
     6.1468   6.1659   6.2221   6.3066   6.4012   6.4469   6.5139   6.5224
     6.5870   6.6313   6.6532   6.6900   6.7338   6.7473   6.9661   7.0254
     7.0599   7.1238   7.1842   7.1911   7.1970   7.2775   7.3452   7.3515
     7.3975   7.4078   7.5054   7.5525   7.5566   7.5981   7.6633   7.6862
     7.7102   7.7354   7.8561   7.8595   7.9904   8.0117   8.0872   8.1033
     8.1647   8.1899   8.2066   8.2593   8.3083   8.3415   8.3927   8.4504
     8.5055   8.5326   8.5463   8.5630   8.5759   8.6098   8.6323   8.6677
     8.6772   8.6838   8.6888   8.7789   9.2018   9.2300   9.2388   9.2575
     9.2685   9.3757   9.4164   9.4365   9.4457   9.4745   9.5311   9.5571
     9.5625   9.6169   9.7351   9.8661   9.9316  10.3632  10.4121  10.7285

          k =-0.2500 0.5057 0.0000 ( 95386 PWs)   bands (ev):

    -8.0046  -7.7852  -7.3692  -7.1562  -6.9586  -6.8863  -6.8073  -6.6745
    -6.6106  -6.2898  -6.2192  -6.1888  -6.1049  -6.0371  -5.9300  -5.9277
    -5.8885  -5.8389  -5.8308  -5.8248  -5.7937  -5.7358  -5.7238  -5.6812
    -5.6673  -5.6493  -5.6452  -5.6399  -5.5496  -5.5382  -5.5307  -5.5225
    -5.5162  -5.5070  -5.4890  -5.4810  -5.4628  -5.4593  -5.4281  -5.3750
    -5.3688  -5.3535  -5.3513  -5.3169  -5.3097  -5.2937  -5.2910  -5.2335
    -5.2325  -5.2324  -5.2280  -5.2181  -5.1995  -5.1784  -5.1552  -5.1445
    -5.1296  -5.1242  -5.1155  -5.1139  -5.1103  -5.1090  -5.0879  -5.0673
    -5.0645  -5.0568  -5.0557  -5.0487  -5.0405  -5.0375  -5.0302  -4.9875
    -4.9818  -4.9667  -4.9635  -4.9479  -4.9340  -4.9322  -4.9286  -4.9266
    -4.9174  -4.9157  -4.9067  -4.9037  -4.8856  -4.8851  -4.8815  -4.8716
    -4.8716  -4.8619  -4.8594  -4.8485  -4.8278  -4.8267  -4.8245  -4.8219
    -4.7416  -4.7391  -4.7374  -4.7365  -4.7327  -4.7253  -4.7209  -4.7206
    -4.7200  -4.7118  -4.6993  -4.6846  -4.6740  -4.6163  -4.5998  -4.5968
    -4.5931  -4.5848  -4.5622  -4.5608  -4.5572  -4.5265  -4.4703  -4.4693
    -4.4507  -4.4135  -4.3977  -4.3949  -4.3933  -4.3930  -4.3915  -4.3851
    -4.3551  -4.3454  -4.3448  -4.3368  -4.3254  -4.3227  -4.3199  -4.3033
    -4.3018  -4.2736  -4.2642  -4.2571  -4.2474  -4.2449  -4.2292  -4.2103
    -4.1935  -4.1677  -4.1559  -4.1548  -4.1543  -4.1528  -4.1480  -4.1392
    -4.1370  -4.1042  -4.0969  -4.0832  -4.0772  -4.0760  -4.0696  -4.0541
    -4.0503  -4.0350  -4.0304  -4.0237  -4.0211  -4.0170  -4.0082  -3.9936
    -3.9865  -3.9705  -3.9584  -3.9273  -3.9137  -3.8983  -3.8928  -3.8893
    -3.8707  -3.8704  -3.8609  -3.8371  -3.8363  -3.8327  -3.8162  -3.8081
    -3.7857  -3.7798  -3.7389  -3.7355  -3.7262  -3.7238  -3.7146  -3.7099
    -3.7007  -3.6850  -3.6805  -3.6709  -3.6587  -3.6402  -3.6189  -3.6189
    -3.6170  -3.6159  -3.6053  -3.6015  -3.5988  -3.5949  -3.5914  -3.5794
    -3.5695  -3.5667  -3.5642  -3.5592  -3.5572  -3.5506  -3.5456  -3.5446
    -3.5432  -3.5339  -3.5233  -3.4920  -3.4820  -3.4560  -3.4537  -3.4426
    -3.4422  -3.4402  -3.4389  -3.4258  -3.4211  -3.4125  -3.4048  -3.3967
    -3.3876  -3.3794  -3.3737  -3.3717  -3.3700  -3.3692  -3.3640  -3.3560
    -3.3523  -3.3371  -3.3354  -3.3266  -3.3258  -3.3241  -3.3197  -3.3168
    -3.3131  -3.3127  -3.3089  -3.3083  -3.2994  -3.2966  -3.2916  -3.2858
    -3.2811  -3.2792  -3.2588  -3.2494  -3.2465  -3.2435  -3.2379  -3.2285
    -3.2194  -3.2186  -3.2139  -3.2099  -3.2019  -3.1995  -3.1887  -3.1802
    -3.1787  -3.1730  -3.1718  -3.1681  -3.1666  -3.1589  -3.1578  -3.1456
    -3.1454  -3.1213  -3.1209  -3.1103  -3.0980  -3.0903  -3.0841  -3.0577
    -3.0411  -3.0397  -3.0342  -3.0330  -3.0259  -3.0236  -3.0228  -3.0178
    -3.0170  -3.0160  -3.0153  -3.0088  -3.0021  -3.0012  -2.9891  -2.9846
    -2.9815  -2.9804  -2.9797  -2.9747  -2.9747  -2.9708  -2.9683  -2.9506
    -2.9148  -2.9128  -2.8898  -2.8755  -2.8739  -2.8621  -2.8594  -2.8490
    -2.8473  -2.8277  -2.8217  -2.8202  -2.7994  -2.7959  -2.7953  -2.7828
    -2.7794  -2.7751  -2.7671  -2.7638  -2.7499  -2.7489  -2.7465  -2.7418
    -2.7230  -2.7222  -2.7204  -2.7177  -2.6625  -2.6541  -2.6459  -2.6364
    -2.6293  -2.6258  -2.6212  -2.5953  -2.5798  -2.5695  -2.5671  -2.5666
    -2.5632  -2.5587  -2.5528  -2.5405  -2.5278  -2.5249  -2.5192  -2.5158
    -2.5087  -2.5069  -2.5009  -2.4926  -2.4896  -2.4860  -2.4802  -2.4790
    -2.4729  -2.4721  -2.4663  -2.4654  -2.4595  -2.4488  -2.4350  -2.4344
    -2.4062  -2.3998  -2.3980  -2.3740  -2.3700  -2.3630  -2.3556  -2.3555
    -2.3484  -2.3450  -2.3353  -2.3321  -2.3150  -2.3001  -2.2925  -2.2716
    -2.2682  -2.2664  -2.2634  -2.2485  -2.2430  -2.2333  -2.2314  -2.2148
    -2.2123  -2.2052  -2.2050  -2.1976  -2.1968  -2.1780  -2.1446  -2.1358
    -2.1301  -2.1056  -2.1021  -2.0845  -2.0672  -2.0482  -2.0472  -2.0439
    -2.0371  -2.0316  -2.0020  -1.9980  -1.9945  -1.9638  -1.9604  -1.9570
    -1.9558  -1.9516  -1.9478  -1.9450  -1.9390  -1.9385  -1.9367  -1.9306
    -1.9296  -1.9272  -1.9168  -1.9119  -1.9075  -1.9018  -1.8644  -1.8554
    -1.8547  -1.8383  -1.8308  -1.8270  -1.8229  -1.8168  -1.8158  -1.8133
    -1.8112  -1.8011  -1.7999  -1.7987  -1.7931  -1.7662  -1.7593  -1.7583
    -1.7572  -1.7480  -1.7429  -1.7422  -1.7363  -1.7362  -1.7263  -1.7236
    -1.7060  -1.7044  -1.6986  -1.6977  -1.6878  -1.6741  -1.6699  -1.6655
    -1.6632  -1.6584  -1.6505  -1.6285  -1.6128  -1.6035  -1.5991  -1.5972
    -1.5789  -1.5757  -1.5752  -1.5737  -1.5599  -1.5445  -1.5041  -1.4989
    -1.4924  -1.4878  -1.4797  -1.4788  -1.4703  -1.4670  -1.4595  -1.4578
    -1.4508  -1.4441  -1.4333  -1.4322  -1.4259  -1.4130  -1.4124  -1.4071
    -1.3994  -1.3814  -1.3715  -1.3682  -1.3627  -1.3577  -1.3451  -1.3394
    -1.3275  -1.3254  -1.3216  -1.3071  -1.3024  -1.2974  -1.2930  -1.2870
    -1.2869  -1.2776  -1.2763  -1.2668  -1.2643  -1.2551  -1.2534  -1.2494
    -1.2414  -1.2394  -1.2277  -1.2274  -1.2197  -1.2190  -1.2189  -1.2186
    -1.2151  -1.2085  -1.2057  -1.1777  -1.1764  -1.1704  -1.1563  -1.1552
    -1.1447  -1.1399  -1.1376  -1.1333  -1.1298  -1.1248  -1.1242  -1.1215
    -1.1186  -1.1073  -1.1057  -1.0982  -1.0871  -1.0826  -1.0798  -1.0778
    -1.0769  -1.0755  -1.0722  -1.0626  -1.0577  -1.0547  -1.0534  -1.0506
    -1.0499  -1.0439  -1.0042  -0.9808  -0.9695  -0.9647  -0.9520  -0.9371
    -0.9355  -0.9291  -0.9243  -0.9205  -0.9158  -0.9075  -0.9001  -0.8817
    -0.8778  -0.8612  -0.8298  -0.8278  -0.8257  -0.7656  -0.6679  -0.6314
    -0.6013  -0.5943  -0.5465  -0.4526  -0.3794  -0.1933  -0.1600  -0.1187
    -0.0033   0.0223   0.0575   0.1555   0.1623   0.1922   0.2708   0.2885
     0.3158   0.3349   0.5889   0.5924   0.6433   0.6721   0.7322   0.7785
     0.8029   0.8037   0.9243   0.9709   0.9833   1.1556   1.1642   1.1987
     1.3020   1.3265   1.3635   1.3878   1.4798   1.5215   1.5260   1.7956
     1.8684   1.8793   1.8974   1.9002   1.9103   1.9754   1.9823   2.0317
     2.0618   2.0736   2.1945   2.4012   2.4065   2.4085   2.4471   2.4516
     2.6434   2.6542   2.6778   2.7101   2.7218   2.7964   2.8418   3.1812
     3.2037   3.2181   3.2819   3.3297   3.3644   3.3781   3.5445   3.5477
     3.5702   3.6171   3.6261   3.7995   3.8066   3.8941   3.9032   4.0006
     4.0228   4.1245   4.1806   4.2441   4.2476   4.2706   4.3020   4.3976
     4.4723   4.4976   4.5213   4.5651   4.6633   4.8054   4.8118   4.8412
     4.8500   4.8526   4.8941   4.9672   4.9892   5.0743   5.0909   5.1947
     5.2017   5.2121   5.2383   5.2621   5.3016   5.4406   5.5258   5.5329
     5.5333   5.5446   5.6501   5.7197   5.7320   5.8370   5.8525   5.8741
     5.8959   5.9065   5.9914   6.0159   6.0169   6.0267   6.0423   6.1384
     6.1472   6.1657   6.2223   6.3068   6.4004   6.4460   6.5143   6.5226
     6.5876   6.6314   6.6533   6.6898   6.7348   6.7466   6.9671   7.0266
     7.0608   7.1206   7.1822   7.1909   7.1953   7.2774   7.3482   7.3540
     7.3968   7.4118   7.5078   7.5548   7.5610   7.5987   7.6622   7.6855
     7.7090   7.7358   7.8597   7.8623   7.9890   8.0095   8.0859   8.1093
     8.1665   8.1965   8.2058   8.2628   8.3067   8.3417   8.3885   8.4508
     8.5066   8.5470   8.5635   8.5772   8.5875   8.6131   8.6540   8.6713
     8.6726   8.6861   8.6931   8.7634   9.1949   9.2234   9.2343   9.2502
     9.2776   9.3684   9.4148   9.4223   9.4360   9.4459   9.5288   9.5413
     9.5845   9.6098   9.7662   9.8674   9.8994  10.3682  10.3888  10.7335

     the Fermi energy is     0.7847 ev

!    total energy              =  -11427.09402140 Ry
     Harris-Foulkes estimate   =  -11427.09402161 Ry
     estimated scf accuracy    <       0.00000022 Ry

     The total energy is the sum of the following terms:

     one-electron contribution = -129707.70172028 Ry
     hartree contribution      =   65677.88484974 Ry
     xc contribution           =   -5523.82256507 Ry
     ewald contribution        =   58126.48229572 Ry
     smearing contrib. (-TS)   =       0.06311850 Ry

     convergence has been achieved in  22 iterations

     negative rho (up, down):  3.085E+00 0.000E+00

     Forces acting on atoms (cartesian axes, Ry/au):

     atom    1 type  1   force =    -0.00100830    0.00016528    0.00835196
     atom    2 type  1   force =    -0.00100326   -0.00022135    0.00807765
     atom    3 type  1   force =    -0.00018668    0.00022440    0.00899709
     atom    4 type  1   force =    -0.00018866   -0.00016758    0.00872210
     atom    5 type  1   force =     0.00005004    0.00025481    0.00902094
     atom    6 type  1   force =     0.00004965   -0.00013158    0.00874473
     atom    7 type  1   force =    -0.00009399    0.00023480    0.00891373
     atom    8 type  1   force =    -0.00009100   -0.00014891    0.00863190
     atom    9 type  1   force =     0.00010905    0.00023571    0.00891992
     atom   10 type  1   force =     0.00010731   -0.00014744    0.00864445
     atom   11 type  1   force =    -0.00004628    0.00024738    0.00901356
     atom   12 type  1   force =    -0.00004551   -0.00013014    0.00874153
     atom   13 type  1   force =     0.00080587    0.00027112    0.00881677
     atom   14 type  1   force =     0.00080325   -0.00011521    0.00854192
     atom   15 type  1   force =    -0.00132710    0.00040154   -0.00530590
     atom   16 type  1   force =    -0.00132385   -0.00005814   -0.00541662
     atom   17 type  1   force =    -0.00020571    0.00037390   -0.00532016
     atom   18 type  1   force =    -0.00020430   -0.00008939   -0.00542859
     atom   19 type  1   force =     0.00012808    0.00037802   -0.00535499
     atom   20 type  1   force =     0.00013126   -0.00008725   -0.00546137
     atom   21 type  1   force =    -0.00008590    0.00038337   -0.00542010
     atom   22 type  1   force =    -0.00008517   -0.00008266   -0.00552934
     atom   23 type  1   force =     0.00010500    0.00038243   -0.00543945
     atom   24 type  1   force =     0.00010381   -0.00008065   -0.00554757
     atom   25 type  1   force =    -0.00012049    0.00037324   -0.00541408
     atom   26 type  1   force =    -0.00011996   -0.00008410   -0.00551901
     atom   27 type  1   force =     0.00100887    0.00037557   -0.00534459
     atom   28 type  1   force =     0.00100317   -0.00008774   -0.00545335
     atom   29 type  1   force =    -0.00061844   -0.00011847    0.00857989
     atom   30 type  1   force =    -0.00061884   -0.00049210    0.00862755
     atom   31 type  1   force =    -0.00008486   -0.00013758    0.00878808
     atom   32 type  1   force =    -0.00008180   -0.00051176    0.00883610
     atom   33 type  1   force =     0.00010253   -0.00014744    0.00868105
     atom   34 type  1   force =     0.00010489   -0.00052061    0.00872688
     atom   35 type  1   force =    -0.00000852   -0.00013475    0.00868591
     atom   36 type  1   force =    -0.00000978   -0.00050832    0.00873304
     atom   37 type  1   force =    -0.00007741   -0.00014107    0.00868615
     atom   38 type  1   force =    -0.00007425   -0.00051246    0.00873105
     atom   39 type  1   force =     0.00014615   -0.00014807    0.00875958
     atom   40 type  1   force =     0.00014110   -0.00052384    0.00880678
     atom   41 type  1   force =     0.00090604   -0.00023407    0.00805459
     atom   42 type  1   force =     0.00090558   -0.00059974    0.00810384
     atom   43 type  1   force =    -0.00079368   -0.00011925   -0.00533154
     atom   44 type  1   force =    -0.00079206   -0.00061229   -0.00530155
     atom   45 type  1   force =    -0.00004609   -0.00011776   -0.00537056
     atom   46 type  1   force =    -0.00004823   -0.00061546   -0.00534158
     atom   47 type  1   force =     0.00020110   -0.00010704   -0.00542795
     atom   48 type  1   force =     0.00019963   -0.00060849   -0.00539813
     atom   49 type  1   force =    -0.00001263   -0.00011045   -0.00547501
     atom   50 type  1   force =    -0.00000942   -0.00061468   -0.00544524
     atom   51 type  1   force =    -0.00014305   -0.00010920   -0.00546358
     atom   52 type  1   force =    -0.00013998   -0.00060921   -0.00543395
     atom   53 type  1   force =     0.00013711   -0.00012039   -0.00543248
     atom   54 type  1   force =     0.00013276   -0.00062337   -0.00540384
     atom   55 type  1   force =     0.00115329   -0.00008530   -0.00536854
     atom   56 type  1   force =     0.00115498   -0.00057212   -0.00533949
     atom   57 type  1   force =    -0.00105884    0.00069513   -0.00838066
     atom   58 type  1   force =    -0.00105298    0.00022700   -0.00806020
     atom   59 type  1   force =    -0.00018779    0.00065328   -0.00901897
     atom   60 type  1   force =    -0.00018782    0.00016851   -0.00869713
     atom   61 type  1   force =     0.00010245    0.00062311   -0.00904582
     atom   62 type  1   force =     0.00010219    0.00013718   -0.00872375
     atom   63 type  1   force =    -0.00002393    0.00063727   -0.00895587
     atom   64 type  1   force =    -0.00001986    0.00016141   -0.00863222
     atom   65 type  1   force =     0.00013098    0.00063178   -0.00897919
     atom   66 type  1   force =     0.00013149    0.00016124   -0.00865774
     atom   67 type  1   force =    -0.00008066    0.00062004   -0.00907185
     atom   68 type  1   force =    -0.00007991    0.00015529   -0.00875212
     atom   69 type  1   force =     0.00074464    0.00059819   -0.00886209
     atom   70 type  1   force =     0.00074390    0.00013064   -0.00854215
     atom   71 type  1   force =    -0.00080568    0.00075857    0.00523926
     atom   72 type  1   force =    -0.00080718    0.00022953    0.00540505
     atom   73 type  1   force =    -0.00003268    0.00075893    0.00527695
     atom   74 type  1   force =    -0.00003353    0.00022851    0.00544697
     atom   75 type  1   force =     0.00022905    0.00075033    0.00527788
     atom   76 type  1   force =     0.00023357    0.00022288    0.00544943
     atom   77 type  1   force =     0.00001528    0.00075279    0.00525228
     atom   78 type  1   force =     0.00001380    0.00022705    0.00542148
     atom   79 type  1   force =    -0.00014688    0.00074818    0.00522094
     atom   80 type  1   force =    -0.00014922    0.00022655    0.00538683
     atom   81 type  1   force =     0.00011274    0.00076108    0.00522495
     atom   82 type  1   force =     0.00011120    0.00023964    0.00539020
     atom   83 type  1   force =     0.00112567    0.00071355    0.00522424
     atom   84 type  1   force =     0.00112121    0.00019453    0.00538869
     atom   85 type  1   force =    -0.00134515    0.00003928    0.00539006
     atom   86 type  1   force =    -0.00135264   -0.00073446    0.00557421
     atom   87 type  1   force =    -0.00020307    0.00006984    0.00543219
     atom   88 type  1   force =    -0.00020357   -0.00070995    0.00561743
     atom   89 type  1   force =     0.00015199    0.00006538    0.00542993
     atom   90 type  1   force =     0.00015456   -0.00071525    0.00561710
     atom   91 type  1   force =    -0.00005142    0.00006490    0.00543032
     atom   92 type  1   force =    -0.00005064   -0.00072263    0.00561429
     atom   93 type  1   force =     0.00011117    0.00006346    0.00539376
     atom   94 type  1   force =     0.00011375   -0.00072244    0.00557743
     atom   95 type  1   force =    -0.00013554    0.00007045    0.00537629
     atom   96 type  1   force =    -0.00013367   -0.00071255    0.00555756
     atom   97 type  1   force =     0.00098045    0.00006894    0.00536407
     atom   98 type  1   force =     0.00097695   -0.00071479    0.00554598
     atom   99 type  1   force =    -0.00064276    0.00010484   -0.00854191
     atom  100 type  1   force =    -0.00064640   -0.00028439   -0.00860205
     atom  101 type  1   force =    -0.00005316    0.00012469   -0.00875103
     atom  102 type  1   force =    -0.00005351   -0.00025887   -0.00881158
     atom  103 type  1   force =     0.00016552    0.00013514   -0.00865244
     atom  104 type  1   force =     0.00017090   -0.00024555   -0.00871394
     atom  105 type  1   force =     0.00004423    0.00012071   -0.00867208
     atom  106 type  1   force =     0.00004500   -0.00026552   -0.00873293
     atom  107 type  1   force =    -0.00008256    0.00013150   -0.00868517
     atom  108 type  1   force =    -0.00007981   -0.00025432   -0.00874747
     atom  109 type  1   force =     0.00009243    0.00014091   -0.00875244
     atom  110 type  1   force =     0.00008863   -0.00024725   -0.00881220
     atom  111 type  1   force =     0.00084703    0.00022082   -0.00802994
     atom  112 type  1   force =     0.00084478   -0.00015920   -0.00809094

     Total force =     0.076873     Total SCF correction =     0.002476

     Writing output data file ./ausurf.save/
 
     init_run     :     12.28s CPU     12.58s WALL (       1 calls)
     electrons    :    519.42s CPU    529.23s WALL (       1 calls)
     forces       :      3.13s CPU      3.26s WALL (       1 calls)

     Called by init_run:
     wfcinit      :     10.64s CPU     10.89s WALL (       1 calls)
     potinit      :      0.14s CPU      0.15s WALL (       1 calls)
     hinit0       :      0.38s CPU      0.38s WALL (       1 calls)

     Called by electrons:
     c_bands      :    440.49s CPU    448.38s WALL (      23 calls)
     sum_band     :     75.87s CPU     77.12s WALL (      23 calls)
     v_of_rho     :      1.02s CPU      1.09s WALL (      23 calls)
     newd         :      1.71s CPU      2.17s WALL (      23 calls)
     mix_rho      :      0.25s CPU      0.26s WALL (      23 calls)

     Called by c_bands:
     init_us_2    :      0.92s CPU      0.95s WALL (      96 calls)
     crmmdiagg    :    234.54s CPU    238.82s WALL (      46 calls)
     wfcrot       :    180.31s CPU    183.56s WALL (      44 calls)
     gsorth       :     34.42s CPU     34.74s WALL (      46 calls)

     Called by sum_band:
     sum_band:bec :      0.57s CPU      0.57s WALL (      46 calls)
     addusdens    :      1.39s CPU      1.85s WALL (      23 calls)

     Called by *rmmdiagg:
     h_psi        :    342.32s CPU    346.65s WALL (     232 calls)
     s_psi        :     20.89s CPU     21.50s WALL (     232 calls)
     cdiaghg      :      8.62s CPU      8.89s WALL (      44 calls)

     Called by h_psi:
     h_psi:calbec :     29.50s CPU     30.01s WALL (     232 calls)
     vloc_psi     :    291.06s CPU    294.03s WALL (     232 calls)
     add_vuspsi   :     21.02s CPU     21.78s WALL (     232 calls)

     General routines
     calbec       :     43.25s CPU     43.99s WALL (     286 calls)
     fft          :      1.29s CPU      1.30s WALL (     309 calls)
     ffts         :      0.12s CPU      0.12s WALL (      46 calls)
     fftw         :    346.53s CPU    350.00s WALL (  219316 calls)
     interpolate  :      0.12s CPU      0.13s WALL (      23 calls)
 
     Parallel routines
     fft_scatt_xy :      6.50s CPU      6.55s WALL (  219671 calls)
     fft_scatt_yz :    316.35s CPU    319.72s WALL (  219671 calls)
 
     PWSCF        :   9m 1.55s CPU   9m59.13s WALL

 
   This run was terminated on:  14:21:38  16Jul2020            

=------------------------------------------------------------------------------=
   JOB DONE.
=------------------------------------------------------------------------------=
