
     Program PWSCF v.6.5 starts on 16Jul2020 at 14: 1:15 

     This program is part of the open-source Quantum ESPRESSO suite
     for quantum simulation of materials; please cite
         "P. Giannozzi et al., J. Phys.:Condens. Matter 21 395502 (2009);
         "P. Giannozzi et al., J. Phys.:Condens. Matter 29 465901 (2017);
          URL http://www.quantum-espresso.org", 
     in publications or presentations arising from this work. More details at
     http://www.quantum-espresso.org/quote

     Parallel version (MPI & OpenMP), running on    1152 processor cores
     Number of MPI processes:              1152
     Threads/MPI process:                     1

     MPI processes distributed on    32 nodes
     R & G space division:  proc/nbgrp/npool/nimage =    1152
     Reading input from ausurf_rmm.in

     Current dimensions of program PWSCF are:
     Max number of different atomic species (ntypx) = 10
     Max number of k-points (npk) =  40000
     Max angular momentum in pseudopotentials (lmaxx) =  3

     Subspace diagonalization in iterative solution of the eigenvalue problem:
     one sub-group per band group will be used
     scalapack distributed-memory algorithm (size of sub-group: 33* 33 procs)

 
     Parallelization info
     --------------------
     sticks:   dense  smooth     PW     G-vecs:    dense   smooth      PW
     Min          10       5      1                 1860      643      69
     Max          11       6      2                 1893      677     100
     Sum       11837    5915   1537              2158381   763307  100747
 

     Title: 
      DEISA pw benchmark                                                        


     bravais-lattice index     =            8
     lattice parameter (alat)  =      38.7583  a.u.
     unit-cell volume          =   45191.4962 (a.u.)^3
     number of atoms/cell      =          112
     number of atomic types    =            1
     number of electrons       =      1232.00
     number of Kohn-Sham states=          800
     kinetic-energy cutoff     =      25.0000  Ry
     charge density cutoff     =     200.0000  Ry
     convergence threshold     =      1.0E-06
     mixing beta               =       0.7000
     number of iterations used =            8  plain     mixing
     Exchange-correlation=  SLA  PW   PBE  PBE
                           (   1   4   3   4   0   0   0)

     celldm(1)=  38.758300  celldm(2)=   0.494393  celldm(3)=   1.569966
     celldm(4)=   0.000000  celldm(5)=   0.000000  celldm(6)=   0.000000

     crystal axes: (cart. coord. in units of alat)
               a(1) = (   1.000000   0.000000   0.000000 )  
               a(2) = (   0.000000   0.494393   0.000000 )  
               a(3) = (   0.000000   0.000000   1.569966 )  

     reciprocal axes: (cart. coord. in units 2 pi/alat)
               b(1) = (  1.000000  0.000000  0.000000 )  
               b(2) = (  0.000000  2.022682  0.000000 )  
               b(3) = (  0.000000  0.000000  0.636956 )  


     PseudoPot. # 1 for Au read from file:
     ./Au.pbe-nd-van.UPF
     MD5 check sum: deb5c07af10777505a79e28f5b4b4115
     Pseudo is Ultrasoft + core correction, Zval = 11.0
     Generated by new atomic code, or converted to UPF format
     Using radial grid of  985 points,  3 beta functions with: 
                l(1) =   1
                l(2) =   2
                l(3) =   2
     Q(r) pseudized with  8 coefficients,  rinner =    1.100   1.100   1.100
                                                       1.100   1.100

     atomic species   valence    mass     pseudopotential
        AU            11.00   196.96000     Au( 1.00)

     No symmetry found



   Cartesian axes

     site n.     atom                  positions (alat units)
         1           AU  tau(   1) = (   1.4278395   1.9784974   0.3497317  )
         2           AU  tau(   2) = (   1.4278395   1.7313987   0.3497317  )
         3           AU  tau(   3) = (   1.5706478   1.9784974   0.3497317  )
         4           AU  tau(   4) = (   1.5706478   1.7313987   0.3497317  )
         5           AU  tau(   5) = (   1.7134072   1.9784974   0.3497317  )
         6           AU  tau(   6) = (   1.7134072   1.7313987   0.3497317  )
         7           AU  tau(   7) = (   1.8562156   1.9784974   0.3497317  )
         8           AU  tau(   8) = (   1.8562156   1.7313987   0.3497317  )
         9           AU  tau(   9) = (   1.9989753   1.9784974   0.3497317  )
        10           AU  tau(  10) = (   1.9989753   1.7313987   0.3497317  )
        11           AU  tau(  11) = (   2.1417836   1.9784974   0.3497317  )
        12           AU  tau(  12) = (   2.1417836   1.7313987   0.3497317  )
        13           AU  tau(  13) = (   2.2845431   1.9784974   0.3497317  )
        14           AU  tau(  14) = (   2.2845431   1.7313987   0.3497317  )
        15           AU  tau(  15) = (   1.4278395   2.0609450   0.2331545  )
        16           AU  tau(  16) = (   1.4278395   1.8138461   0.2331545  )
        17           AU  tau(  17) = (   1.5706478   2.0609450   0.2331545  )
        18           AU  tau(  18) = (   1.5706478   1.8138461   0.2331545  )
        19           AU  tau(  19) = (   1.7134072   2.0609450   0.2331545  )
        20           AU  tau(  20) = (   1.7134072   1.8138461   0.2331545  )
        21           AU  tau(  21) = (   1.8562156   2.0609450   0.2331545  )
        22           AU  tau(  22) = (   1.8562156   1.8138461   0.2331545  )
        23           AU  tau(  23) = (   1.9989753   2.0609450   0.2331545  )
        24           AU  tau(  24) = (   1.9989753   1.8138461   0.2331545  )
        25           AU  tau(  25) = (   2.1417836   2.0609450   0.2331545  )
        26           AU  tau(  26) = (   2.1417836   1.8138461   0.2331545  )
        27           AU  tau(  27) = (   2.2845431   2.0609450   0.2331545  )
        28           AU  tau(  28) = (   2.2845431   1.8138461   0.2331545  )
        29           AU  tau(  29) = (   1.4992193   2.1021445   0.3497317  )
        30           AU  tau(  30) = (   1.4992193   1.8550456   0.3497317  )
        31           AU  tau(  31) = (   1.6420276   2.1021445   0.3497317  )
        32           AU  tau(  32) = (   1.6420276   1.8550456   0.3497317  )
        33           AU  tau(  33) = (   1.7847871   2.1021445   0.3497317  )
        34           AU  tau(  34) = (   1.7847871   1.8550456   0.3497317  )
        35           AU  tau(  35) = (   1.9275954   2.1021445   0.3497317  )
        36           AU  tau(  36) = (   1.9275954   1.8550456   0.3497317  )
        37           AU  tau(  37) = (   2.0704038   2.1021445   0.3497317  )
        38           AU  tau(  38) = (   2.0704038   1.8550456   0.3497317  )
        39           AU  tau(  39) = (   2.2131632   2.1021445   0.3497317  )
        40           AU  tau(  40) = (   2.2131632   1.8550456   0.3497317  )
        41           AU  tau(  41) = (   2.3559716   2.1021445   0.3497317  )
        42           AU  tau(  42) = (   2.3559716   1.8550456   0.3497317  )
        43           AU  tau(  43) = (   1.4992193   1.6901992   0.2331545  )
        44           AU  tau(  44) = (   1.4992193   1.9374930   0.2331545  )
        45           AU  tau(  45) = (   1.6420276   1.6901992   0.2331545  )
        46           AU  tau(  46) = (   1.6420276   1.9374930   0.2331545  )
        47           AU  tau(  47) = (   1.7847871   1.6901992   0.2331545  )
        48           AU  tau(  48) = (   1.7847871   1.9374930   0.2331545  )
        49           AU  tau(  49) = (   1.9275954   1.6901992   0.2331545  )
        50           AU  tau(  50) = (   1.9275954   1.9374930   0.2331545  )
        51           AU  tau(  51) = (   2.0704038   1.6901992   0.2331545  )
        52           AU  tau(  52) = (   2.0704038   1.9374930   0.2331545  )
        53           AU  tau(  53) = (   2.2131632   1.6901992   0.2331545  )
        54           AU  tau(  54) = (   2.2131632   1.9374930   0.2331545  )
        55           AU  tau(  55) = (   2.3559716   1.6901992   0.2331545  )
        56           AU  tau(  56) = (   2.3559716   1.9374930   0.2331545  )
        57           AU  tau(  57) = (   1.4278395   1.9784974   0.0000000  )
        58           AU  tau(  58) = (   1.4278395   1.7313987   0.0000000  )
        59           AU  tau(  59) = (   1.5706478   1.9784974   0.0000000  )
        60           AU  tau(  60) = (   1.5706478   1.7313987   0.0000000  )
        61           AU  tau(  61) = (   1.7134072   1.9784974   0.0000000  )
        62           AU  tau(  62) = (   1.7134072   1.7313987   0.0000000  )
        63           AU  tau(  63) = (   1.8562156   1.9784974   0.0000000  )
        64           AU  tau(  64) = (   1.8562156   1.7313987   0.0000000  )
        65           AU  tau(  65) = (   1.9989753   1.9784974   0.0000000  )
        66           AU  tau(  66) = (   1.9989753   1.7313987   0.0000000  )
        67           AU  tau(  67) = (   2.1417836   1.9784974   0.0000000  )
        68           AU  tau(  68) = (   2.1417836   1.7313987   0.0000000  )
        69           AU  tau(  69) = (   2.2845431   1.9784974   0.0000000  )
        70           AU  tau(  70) = (   2.2845431   1.7313987   0.0000000  )
        71           AU  tau(  71) = (   1.4992193   2.0196968   0.1165772  )
        72           AU  tau(  72) = (   1.4992193   1.7725979   0.1165772  )
        73           AU  tau(  73) = (   1.6420276   2.0196968   0.1165772  )
        74           AU  tau(  74) = (   1.6420276   1.7725979   0.1165772  )
        75           AU  tau(  75) = (   1.7847871   2.0196968   0.1165772  )
        76           AU  tau(  76) = (   1.7847871   1.7725979   0.1165772  )
        77           AU  tau(  77) = (   1.9275954   2.0196968   0.1165772  )
        78           AU  tau(  78) = (   1.9275954   1.7725979   0.1165772  )
        79           AU  tau(  79) = (   2.0704038   2.0196968   0.1165772  )
        80           AU  tau(  80) = (   2.0704038   1.7725979   0.1165772  )
        81           AU  tau(  81) = (   2.2131632   2.0196968   0.1165772  )
        82           AU  tau(  82) = (   2.2131632   1.7725979   0.1165772  )
        83           AU  tau(  83) = (   2.3559716   2.0196968   0.1165772  )
        84           AU  tau(  84) = (   2.3559716   1.7725979   0.1165772  )
        85           AU  tau(  85) = (   1.4278395   2.1433437   0.1165772  )
        86           AU  tau(  86) = (   1.4278395   1.8962938   0.1165772  )
        87           AU  tau(  87) = (   1.5706478   2.1433437   0.1165772  )
        88           AU  tau(  88) = (   1.5706478   1.8962938   0.1165772  )
        89           AU  tau(  89) = (   1.7134072   2.1433437   0.1165772  )
        90           AU  tau(  90) = (   1.7134072   1.8962938   0.1165772  )
        91           AU  tau(  91) = (   1.8562156   2.1433437   0.1165772  )
        92           AU  tau(  92) = (   1.8562156   1.8962938   0.1165772  )
        93           AU  tau(  93) = (   1.9989753   2.1433437   0.1165772  )
        94           AU  tau(  94) = (   1.9989753   1.8962938   0.1165772  )
        95           AU  tau(  95) = (   2.1417836   2.1433437   0.1165772  )
        96           AU  tau(  96) = (   2.1417836   1.8962938   0.1165772  )
        97           AU  tau(  97) = (   2.2845431   2.1433437   0.1165772  )
        98           AU  tau(  98) = (   2.2845431   1.8962938   0.1165772  )
        99           AU  tau(  99) = (   1.4992193   2.1021445   0.0000000  )
       100           AU  tau( 100) = (   1.4992193   1.8550456   0.0000000  )
       101           AU  tau( 101) = (   1.6420276   2.1021445   0.0000000  )
       102           AU  tau( 102) = (   1.6420276   1.8550456   0.0000000  )
       103           AU  tau( 103) = (   1.7847871   2.1021445   0.0000000  )
       104           AU  tau( 104) = (   1.7847871   1.8550456   0.0000000  )
       105           AU  tau( 105) = (   1.9275954   2.1021445   0.0000000  )
       106           AU  tau( 106) = (   1.9275954   1.8550456   0.0000000  )
       107           AU  tau( 107) = (   2.0704038   2.1021445   0.0000000  )
       108           AU  tau( 108) = (   2.0704038   1.8550456   0.0000000  )
       109           AU  tau( 109) = (   2.2131632   2.1021445   0.0000000  )
       110           AU  tau( 110) = (   2.2131632   1.8550456   0.0000000  )
       111           AU  tau( 111) = (   2.3559716   2.1021445   0.0000000  )
       112           AU  tau( 112) = (   2.3559716   1.8550456   0.0000000  )

     number of k points=     2  Marzari-Vanderbilt smearing, width (Ry)=  0.0500
                       cart. coord. in units 2pi/alat
        k(    1) = (   0.2500000   0.5056706   0.0000000), wk =   1.0000000
        k(    2) = (  -0.2500000   0.5056706   0.0000000), wk =   1.0000000

     Dense  grid:  2158381 G-vectors     FFT dimensions: ( 180,  90, 288)

     Smooth grid:   763307 G-vectors     FFT dimensions: ( 125,  64, 200)

     Estimated max dynamical RAM per process >      43.53 MB

     Estimated total dynamical RAM >      48.97 GB

     Initial potential from superposition of free atoms

     starting charge 1230.69946, renormalised to 1232.00000

     negative rho (up, down):  3.043E+00 0.000E+00
     Starting wfcs are 1008 randomized atomic wfcs

     total cpu time spent up to now is       11.9 secs

     Self-consistent Calculation

     iteration #  1     ecut=    25.00 Ry     beta= 0.70
     RMM-DIIS diagonalization
     ethr =  1.00E-02,  avg # of iterations =  1.9

     Threshold (ethr) on eigenvalues was too large:
     Diagonalizing with lowered threshold

     RMM-DIIS diagonalization
     ethr =  3.12E-04,  avg # of iterations =  2.8

     negative rho (up, down):  2.995E+00 0.000E+00

     total cpu time spent up to now is       47.5 secs

     total energy              =  -11423.76550901 Ry
     Harris-Foulkes estimate   =  -11428.38278391 Ry
     estimated scf accuracy    <       5.88267373 Ry

     iteration #  2     ecut=    25.00 Ry     beta= 0.70
     RMM-DIIS diagonalization
     ethr =  4.77E-04,  avg # of iterations =  4.0

     negative rho (up, down):  3.010E+00 0.000E+00

     total cpu time spent up to now is       70.2 secs

     total energy              =  -11411.90876904 Ry
     Harris-Foulkes estimate   =  -11438.88683493 Ry
     estimated scf accuracy    <     153.79105568 Ry

     iteration #  3     ecut=    25.00 Ry     beta= 0.70
     RMM-DIIS diagonalization
     ethr =  4.77E-04,  avg # of iterations =  3.6

     negative rho (up, down):  3.050E+00 0.000E+00

     total cpu time spent up to now is       90.0 secs

     total energy              =  -11426.43434413 Ry
     Harris-Foulkes estimate   =  -11427.77119547 Ry
     estimated scf accuracy    <       3.63674638 Ry

     iteration #  4     ecut=    25.00 Ry     beta= 0.70
     RMM-DIIS diagonalization
     ethr =  2.95E-04,  avg # of iterations =  2.7

     negative rho (up, down):  3.058E+00 0.000E+00

     total cpu time spent up to now is      106.7 secs

     total energy              =  -11426.66177493 Ry
     Harris-Foulkes estimate   =  -11427.18738127 Ry
     estimated scf accuracy    <       2.52789519 Ry

     iteration #  5     ecut=    25.00 Ry     beta= 0.70
     RMM-DIIS diagonalization
     ethr =  2.05E-04,  avg # of iterations =  2.6

     negative rho (up, down):  3.074E+00 0.000E+00

     total cpu time spent up to now is      121.3 secs

     total energy              =  -11426.83294842 Ry
     Harris-Foulkes estimate   =  -11427.36493628 Ry
     estimated scf accuracy    <       5.37304454 Ry

     iteration #  6     ecut=    25.00 Ry     beta= 0.70
     RMM-DIIS diagonalization
     ethr =  2.05E-04,  avg # of iterations =  2.5

     negative rho (up, down):  3.079E+00 0.000E+00

     total cpu time spent up to now is      136.0 secs

     total energy              =  -11427.07205403 Ry
     Harris-Foulkes estimate   =  -11427.09126218 Ry
     estimated scf accuracy    <       0.07842639 Ry

     iteration #  7     ecut=    25.00 Ry     beta= 0.70
     RMM-DIIS diagonalization
     ethr =  6.37E-06,  avg # of iterations =  3.6

     negative rho (up, down):  3.082E+00 0.000E+00

     total cpu time spent up to now is      161.0 secs

     total energy              =  -11427.06155180 Ry
     Harris-Foulkes estimate   =  -11427.11972127 Ry
     estimated scf accuracy    <       0.38344100 Ry

     iteration #  8     ecut=    25.00 Ry     beta= 0.70
     RMM-DIIS diagonalization
     ethr =  6.37E-06,  avg # of iterations =  2.8

     negative rho (up, down):  3.084E+00 0.000E+00

     total cpu time spent up to now is      203.7 secs

     total energy              =  -11427.07008383 Ry
     Harris-Foulkes estimate   =  -11427.11748775 Ry
     estimated scf accuracy    <       0.53108862 Ry

     iteration #  9     ecut=    25.00 Ry     beta= 0.70
     RMM-DIIS diagonalization
     ethr =  6.37E-06,  avg # of iterations =  2.7

     negative rho (up, down):  3.084E+00 0.000E+00

     total cpu time spent up to now is      219.3 secs

     total energy              =  -11427.09242905 Ry
     Harris-Foulkes estimate   =  -11427.09426336 Ry
     estimated scf accuracy    <       0.00825336 Ry

     iteration # 10     ecut=    25.00 Ry     beta= 0.70
     RMM-DIIS diagonalization
     ethr =  6.70E-07,  avg # of iterations =  2.9

     negative rho (up, down):  3.083E+00 0.000E+00

     total cpu time spent up to now is      235.6 secs

     total energy              =  -11427.09324260 Ry
     Harris-Foulkes estimate   =  -11427.09433267 Ry
     estimated scf accuracy    <       0.00469866 Ry

     iteration # 11     ecut=    25.00 Ry     beta= 0.70
     RMM-DIIS diagonalization
     ethr =  3.81E-07,  avg # of iterations =  2.8

     negative rho (up, down):  3.084E+00 0.000E+00

     total cpu time spent up to now is      251.9 secs

     total energy              =  -11427.09349711 Ry
     Harris-Foulkes estimate   =  -11427.09427741 Ry
     estimated scf accuracy    <       0.00301495 Ry

     iteration # 12     ecut=    25.00 Ry     beta= 0.70
     RMM-DIIS diagonalization
     ethr =  2.45E-07,  avg # of iterations =  2.7

     negative rho (up, down):  3.084E+00 0.000E+00

     total cpu time spent up to now is      267.1 secs

     total energy              =  -11427.09350045 Ry
     Harris-Foulkes estimate   =  -11427.09425302 Ry
     estimated scf accuracy    <       0.00511968 Ry

     iteration # 13     ecut=    25.00 Ry     beta= 0.70
     RMM-DIIS diagonalization
     ethr =  2.45E-07,  avg # of iterations =  2.7

     negative rho (up, down):  3.084E+00 0.000E+00

     total cpu time spent up to now is      281.5 secs

     total energy              =  -11427.09377905 Ry
     Harris-Foulkes estimate   =  -11427.09421105 Ry
     estimated scf accuracy    <       0.00338992 Ry

     iteration # 14     ecut=    25.00 Ry     beta= 0.70
     RMM-DIIS diagonalization
     ethr =  2.45E-07,  avg # of iterations =  2.7

     negative rho (up, down):  3.085E+00 0.000E+00

     total cpu time spent up to now is      295.8 secs

     total energy              =  -11427.09398716 Ry
     Harris-Foulkes estimate   =  -11427.09402594 Ry
     estimated scf accuracy    <       0.00011928 Ry

     iteration # 15     ecut=    25.00 Ry     beta= 0.70
     RMM-DIIS diagonalization
     ethr =  9.68E-09,  avg # of iterations =  3.1

     negative rho (up, down):  3.085E+00 0.000E+00

     total cpu time spent up to now is      313.4 secs

     total energy              =  -11427.09400411 Ry
     Harris-Foulkes estimate   =  -11427.09402457 Ry
     estimated scf accuracy    <       0.00008199 Ry

     iteration # 16     ecut=    25.00 Ry     beta= 0.70
     RMM-DIIS diagonalization
     ethr =  6.66E-09,  avg # of iterations =  2.7

     negative rho (up, down):  3.085E+00 0.000E+00

     total cpu time spent up to now is      331.0 secs

     total energy              =  -11427.09399401 Ry
     Harris-Foulkes estimate   =  -11427.09404165 Ry
     estimated scf accuracy    <       0.00036230 Ry

     iteration # 17     ecut=    25.00 Ry     beta= 0.70
     RMM-DIIS diagonalization
     ethr =  6.66E-09,  avg # of iterations =  2.7

     negative rho (up, down):  3.085E+00 0.000E+00

     total cpu time spent up to now is      349.6 secs

     total energy              =  -11427.09399247 Ry
     Harris-Foulkes estimate   =  -11427.09403705 Ry
     estimated scf accuracy    <       0.00022425 Ry

     iteration # 18     ecut=    25.00 Ry     beta= 0.70
     RMM-DIIS diagonalization
     ethr =  6.66E-09,  avg # of iterations =  2.7

     negative rho (up, down):  3.085E+00 0.000E+00

     total cpu time spent up to now is      369.0 secs

     total energy              =  -11427.09396337 Ry
     Harris-Foulkes estimate   =  -11427.09407748 Ry
     estimated scf accuracy    <       0.00135946 Ry

     iteration # 19     ecut=    25.00 Ry     beta= 0.70
     RMM-DIIS diagonalization
     ethr =  6.66E-09,  avg # of iterations =  2.7

     negative rho (up, down):  3.085E+00 0.000E+00

     total cpu time spent up to now is      397.0 secs

     total energy              =  -11427.09401540 Ry
     Harris-Foulkes estimate   =  -11427.09402577 Ry
     estimated scf accuracy    <       0.00005243 Ry

     iteration # 20     ecut=    25.00 Ry     beta= 0.70
     RMM-DIIS diagonalization
     ethr =  4.26E-09,  avg # of iterations =  2.7

     negative rho (up, down):  3.085E+00 0.000E+00

     total cpu time spent up to now is      418.3 secs

     total energy              =  -11427.09402012 Ry
     Harris-Foulkes estimate   =  -11427.09402263 Ry
     estimated scf accuracy    <       0.00001240 Ry

     iteration # 21     ecut=    25.00 Ry     beta= 0.70
     RMM-DIIS diagonalization
     ethr =  1.01E-09,  avg # of iterations =  2.7

     negative rho (up, down):  3.085E+00 0.000E+00

     total cpu time spent up to now is      433.5 secs

     total energy              =  -11427.09402136 Ry
     Harris-Foulkes estimate   =  -11427.09402160 Ry
     estimated scf accuracy    <       0.00000104 Ry

     iteration # 22     ecut=    25.00 Ry     beta= 0.70
     RMM-DIIS diagonalization
     ethr =  8.42E-11,  avg # of iterations =  3.3

     negative rho (up, down):  3.085E+00 0.000E+00

     total cpu time spent up to now is      451.8 secs

     End of self-consistent calculation

          k = 0.2500 0.5057 0.0000 ( 95386 PWs)   bands (ev):

    -8.0047  -7.7853  -7.3694  -7.1563  -6.9588  -6.8864  -6.8074  -6.6746
    -6.6108  -6.2899  -6.2193  -6.1889  -6.1049  -6.0373  -5.9301  -5.9278
    -5.8886  -5.8390  -5.8309  -5.8248  -5.7938  -5.7360  -5.7239  -5.6813
    -5.6674  -5.6495  -5.6453  -5.6401  -5.5497  -5.5383  -5.5309  -5.5226
    -5.5164  -5.5072  -5.4891  -5.4811  -5.4629  -5.4594  -5.4281  -5.3751
    -5.3690  -5.3536  -5.3514  -5.3170  -5.3098  -5.2938  -5.2911  -5.2336
    -5.2326  -5.2326  -5.2282  -5.2183  -5.1996  -5.1786  -5.1553  -5.1446
    -5.1298  -5.1243  -5.1156  -5.1140  -5.1104  -5.1091  -5.0880  -5.0674
    -5.0646  -5.0569  -5.0558  -5.0487  -5.0406  -5.0375  -5.0303  -4.9876
    -4.9820  -4.9668  -4.9637  -4.9480  -4.9341  -4.9323  -4.9287  -4.9267
    -4.9175  -4.9159  -4.9068  -4.9038  -4.8857  -4.8852  -4.8816  -4.8718
    -4.8717  -4.8620  -4.8595  -4.8486  -4.8279  -4.8269  -4.8246  -4.8220
    -4.7417  -4.7392  -4.7375  -4.7366  -4.7328  -4.7254  -4.7210  -4.7208
    -4.7200  -4.7119  -4.6994  -4.6847  -4.6741  -4.6164  -4.6000  -4.5969
    -4.5932  -4.5849  -4.5623  -4.5609  -4.5573  -4.5266  -4.4704  -4.4694
    -4.4508  -4.4136  -4.3978  -4.3951  -4.3933  -4.3931  -4.3916  -4.3852
    -4.3552  -4.3455  -4.3449  -4.3369  -4.3254  -4.3228  -4.3200  -4.3034
    -4.3020  -4.2737  -4.2643  -4.2572  -4.2475  -4.2450  -4.2292  -4.2104
    -4.1936  -4.1678  -4.1561  -4.1549  -4.1545  -4.1529  -4.1480  -4.1393
    -4.1371  -4.1043  -4.0971  -4.0833  -4.0773  -4.0761  -4.0697  -4.0543
    -4.0504  -4.0352  -4.0305  -4.0239  -4.0212  -4.0171  -4.0083  -3.9937
    -3.9866  -3.9706  -3.9585  -3.9274  -3.9138  -3.8984  -3.8930  -3.8894
    -3.8708  -3.8706  -3.8610  -3.8373  -3.8364  -3.8328  -3.8163  -3.8083
    -3.7858  -3.7800  -3.7390  -3.7356  -3.7264  -3.7239  -3.7148  -3.7100
    -3.7008  -3.6851  -3.6806  -3.6710  -3.6588  -3.6403  -3.6191  -3.6190
    -3.6171  -3.6160  -3.6054  -3.6017  -3.5989  -3.5950  -3.5915  -3.5795
    -3.5696  -3.5668  -3.5643  -3.5593  -3.5573  -3.5507  -3.5457  -3.5447
    -3.5433  -3.5340  -3.5234  -3.4921  -3.4821  -3.4561  -3.4539  -3.4427
    -3.4424  -3.4403  -3.4391  -3.4259  -3.4212  -3.4126  -3.4050  -3.3968
    -3.3877  -3.3795  -3.3739  -3.3718  -3.3701  -3.3693  -3.3641  -3.3561
    -3.3524  -3.3372  -3.3355  -3.3267  -3.3259  -3.3242  -3.3198  -3.3169
    -3.3132  -3.3128  -3.3090  -3.3085  -3.2996  -3.2967  -3.2917  -3.2859
    -3.2813  -3.2793  -3.2589  -3.2495  -3.2466  -3.2436  -3.2380  -3.2286
    -3.2195  -3.2187  -3.2140  -3.2100  -3.2020  -3.1996  -3.1888  -3.1804
    -3.1788  -3.1730  -3.1719  -3.1682  -3.1667  -3.1590  -3.1579  -3.1457
    -3.1455  -3.1215  -3.1210  -3.1104  -3.0981  -3.0904  -3.0842  -3.0578
    -3.0412  -3.0398  -3.0343  -3.0331  -3.0260  -3.0237  -3.0230  -3.0179
    -3.0171  -3.0161  -3.0154  -3.0089  -3.0022  -3.0013  -2.9891  -2.9846
    -2.9816  -2.9806  -2.9799  -2.9748  -2.9747  -2.9709  -2.9684  -2.9507
    -2.9150  -2.9128  -2.8899  -2.8756  -2.8740  -2.8621  -2.8595  -2.8491
    -2.8474  -2.8278  -2.8218  -2.8203  -2.7995  -2.7960  -2.7954  -2.7829
    -2.7796  -2.7752  -2.7672  -2.7639  -2.7500  -2.7490  -2.7467  -2.7419
    -2.7231  -2.7223  -2.7205  -2.7178  -2.6626  -2.6542  -2.6460  -2.6365
    -2.6294  -2.6259  -2.6213  -2.5953  -2.5799  -2.5696  -2.5672  -2.5667
    -2.5633  -2.5589  -2.5529  -2.5406  -2.5279  -2.5250  -2.5193  -2.5159
    -2.5088  -2.5070  -2.5009  -2.4927  -2.4897  -2.4861  -2.4802  -2.4791
    -2.4730  -2.4722  -2.4664  -2.4655  -2.4597  -2.4489  -2.4351  -2.4345
    -2.4063  -2.3999  -2.3981  -2.3741  -2.3701  -2.3631  -2.3557  -2.3556
    -2.3485  -2.3450  -2.3355  -2.3322  -2.3151  -2.3002  -2.2927  -2.2717
    -2.2684  -2.2665  -2.2635  -2.2486  -2.2431  -2.2334  -2.2315  -2.2148
    -2.2124  -2.2053  -2.2051  -2.1977  -2.1969  -2.1781  -2.1447  -2.1359
    -2.1302  -2.1057  -2.1022  -2.0846  -2.0673  -2.0483  -2.0473  -2.0440
    -2.0371  -2.0317  -2.0021  -1.9981  -1.9947  -1.9639  -1.9605  -1.9571
    -1.9559  -1.9517  -1.9479  -1.9451  -1.9391  -1.9386  -1.9368  -1.9307
    -1.9298  -1.9274  -1.9169  -1.9120  -1.9076  -1.9019  -1.8645  -1.8555
    -1.8548  -1.8384  -1.8309  -1.8271  -1.8230  -1.8169  -1.8160  -1.8134
    -1.8113  -1.8013  -1.8000  -1.7988  -1.7932  -1.7663  -1.7594  -1.7584
    -1.7573  -1.7481  -1.7430  -1.7423  -1.7364  -1.7364  -1.7264  -1.7237
    -1.7061  -1.7045  -1.6987  -1.6978  -1.6879  -1.6743  -1.6700  -1.6656
    -1.6633  -1.6585  -1.6506  -1.6286  -1.6129  -1.6036  -1.5992  -1.5973
    -1.5790  -1.5758  -1.5753  -1.5738  -1.5600  -1.5446  -1.5042  -1.4990
    -1.4925  -1.4879  -1.4798  -1.4789  -1.4704  -1.4671  -1.4596  -1.4579
    -1.4510  -1.4442  -1.4335  -1.4323  -1.4260  -1.4131  -1.4125  -1.4072
    -1.3995  -1.3815  -1.3716  -1.3683  -1.3628  -1.3578  -1.3452  -1.3395
    -1.3276  -1.3255  -1.3217  -1.3072  -1.3025  -1.2975  -1.2931  -1.2872
    -1.2870  -1.2777  -1.2764  -1.2669  -1.2644  -1.2552  -1.2535  -1.2495
    -1.2415  -1.2396  -1.2278  -1.2275  -1.2198  -1.2191  -1.2190  -1.2187
    -1.2152  -1.2086  -1.2058  -1.1778  -1.1765  -1.1705  -1.1564  -1.1553
    -1.1448  -1.1400  -1.1377  -1.1334  -1.1299  -1.1249  -1.1243  -1.1216
    -1.1187  -1.1074  -1.1058  -1.0983  -1.0873  -1.0827  -1.0799  -1.0779
    -1.0770  -1.0756  -1.0723  -1.0627  -1.0578  -1.0548  -1.0536  -1.0507
    -1.0500  -1.0441  -1.0043  -0.9810  -0.9696  -0.9648  -0.9521  -0.9371
    -0.9357  -0.9291  -0.9244  -0.9206  -0.9160  -0.9076  -0.9002  -0.8818
    -0.8779  -0.8613  -0.8299  -0.8279  -0.8258  -0.7657  -0.6680  -0.6315
    -0.6014  -0.5944  -0.5465  -0.4527  -0.3795  -0.1935  -0.1601  -0.1188
    -0.0034   0.0222   0.0574   0.1554   0.1621   0.1921   0.2707   0.2883
     0.3157   0.3348   0.5888   0.5922   0.6432   0.6720   0.7321   0.7784
     0.8028   0.8037   0.9242   0.9708   0.9833   1.1555   1.1641   1.1986
     1.3019   1.3263   1.3634   1.3877   1.4797   1.5214   1.5259   1.7955
     1.8683   1.8792   1.8973   1.9001   1.9102   1.9753   1.9822   2.0317
     2.0617   2.0735   2.1945   2.4012   2.4064   2.4085   2.4469   2.4515
     2.6433   2.6541   2.6777   2.7100   2.7217   2.7963   2.8418   3.1811
     3.2036   3.2180   3.2818   3.3296   3.3643   3.3780   3.5444   3.5477
     3.5701   3.6171   3.6260   3.7994   3.8065   3.8940   3.9031   4.0005
     4.0227   4.1244   4.1805   4.2440   4.2475   4.2705   4.3019   4.3975
     4.4722   4.4975   4.5212   4.5650   4.6632   4.8054   4.8117   4.8412
     4.8500   4.8525   4.8941   4.9671   4.9891   5.0742   5.0909   5.1946
     5.2016   5.2120   5.2382   5.2620   5.3016   5.4406   5.5257   5.5328
     5.5332   5.5445   5.6500   5.7198   5.7320   5.8368   5.8524   5.8736
     5.8958   5.9065   5.9914   6.0154   6.0163   6.0264   6.0421   6.1380
     6.1472   6.1657   6.2221   6.3065   6.4008   6.4470   6.5138   6.5226
     6.5872   6.6305   6.6527   6.6883   6.7335   6.7420   6.9663   7.0238
     7.0601   7.1209   7.1832   7.1934   7.1983   7.2757   7.3460   7.3538
     7.3978   7.4115   7.5074   7.5530   7.5591   7.5982   7.6619   7.6863
     7.7132   7.7345   7.8589   7.8605   7.9891   8.0090   8.0875   8.1071
     8.1568   8.1850   8.1985   8.2630   8.3101   8.3401   8.3919   8.4518
     8.5049   8.5391   8.5599   8.5888   8.6134   8.6269   8.6372   8.6729
     8.6739   8.6916   8.7047   8.7590   9.1933   9.2092   9.2185   9.2618
     9.2703   9.3628   9.4151   9.4308   9.4426   9.4444   9.5405   9.5420
     9.5670   9.5986   9.7546   9.8719   9.9283  10.3737  10.5341  10.7192

          k =-0.2500 0.5057 0.0000 ( 95386 PWs)   bands (ev):

    -8.0047  -7.7853  -7.3694  -7.1563  -6.9588  -6.8864  -6.8074  -6.6746
    -6.6108  -6.2899  -6.2193  -6.1889  -6.1049  -6.0373  -5.9301  -5.9278
    -5.8886  -5.8390  -5.8309  -5.8248  -5.7938  -5.7360  -5.7239  -5.6813
    -5.6674  -5.6495  -5.6453  -5.6401  -5.5497  -5.5383  -5.5309  -5.5226
    -5.5164  -5.5072  -5.4891  -5.4811  -5.4629  -5.4594  -5.4281  -5.3751
    -5.3690  -5.3536  -5.3514  -5.3170  -5.3098  -5.2938  -5.2911  -5.2336
    -5.2326  -5.2326  -5.2282  -5.2183  -5.1996  -5.1786  -5.1553  -5.1446
    -5.1298  -5.1243  -5.1156  -5.1140  -5.1105  -5.1091  -5.0880  -5.0674
    -5.0646  -5.0569  -5.0558  -5.0487  -5.0406  -5.0375  -5.0303  -4.9877
    -4.9820  -4.9668  -4.9637  -4.9480  -4.9341  -4.9323  -4.9287  -4.9267
    -4.9175  -4.9159  -4.9068  -4.9038  -4.8857  -4.8852  -4.8816  -4.8718
    -4.8717  -4.8620  -4.8595  -4.8486  -4.8279  -4.8269  -4.8246  -4.8220
    -4.7417  -4.7392  -4.7375  -4.7366  -4.7328  -4.7254  -4.7210  -4.7207
    -4.7201  -4.7119  -4.6994  -4.6847  -4.6741  -4.6164  -4.6000  -4.5969
    -4.5932  -4.5849  -4.5623  -4.5609  -4.5573  -4.5266  -4.4704  -4.4694
    -4.4508  -4.4136  -4.3978  -4.3950  -4.3934  -4.3930  -4.3916  -4.3852
    -4.3552  -4.3455  -4.3449  -4.3369  -4.3254  -4.3228  -4.3200  -4.3034
    -4.3020  -4.2737  -4.2643  -4.2572  -4.2475  -4.2450  -4.2292  -4.2104
    -4.1936  -4.1678  -4.1561  -4.1549  -4.1545  -4.1529  -4.1480  -4.1394
    -4.1371  -4.1043  -4.0971  -4.0833  -4.0773  -4.0761  -4.0697  -4.0543
    -4.0504  -4.0351  -4.0305  -4.0239  -4.0211  -4.0171  -4.0083  -3.9937
    -3.9866  -3.9706  -3.9585  -3.9274  -3.9138  -3.8984  -3.8930  -3.8894
    -3.8708  -3.8706  -3.8610  -3.8373  -3.8364  -3.8328  -3.8163  -3.8083
    -3.7858  -3.7800  -3.7390  -3.7356  -3.7264  -3.7239  -3.7148  -3.7100
    -3.7008  -3.6851  -3.6806  -3.6710  -3.6588  -3.6403  -3.6191  -3.6190
    -3.6171  -3.6160  -3.6054  -3.6017  -3.5989  -3.5950  -3.5915  -3.5795
    -3.5696  -3.5668  -3.5643  -3.5593  -3.5573  -3.5507  -3.5457  -3.5447
    -3.5433  -3.5340  -3.5234  -3.4921  -3.4821  -3.4561  -3.4539  -3.4428
    -3.4424  -3.4403  -3.4391  -3.4259  -3.4211  -3.4126  -3.4050  -3.3968
    -3.3877  -3.3795  -3.3739  -3.3718  -3.3702  -3.3693  -3.3641  -3.3561
    -3.3524  -3.3372  -3.3355  -3.3267  -3.3259  -3.3242  -3.3198  -3.3169
    -3.3132  -3.3128  -3.3090  -3.3084  -3.2996  -3.2967  -3.2917  -3.2859
    -3.2813  -3.2793  -3.2589  -3.2495  -3.2466  -3.2436  -3.2380  -3.2286
    -3.2195  -3.2187  -3.2140  -3.2100  -3.2020  -3.1996  -3.1888  -3.1804
    -3.1788  -3.1731  -3.1719  -3.1682  -3.1667  -3.1590  -3.1579  -3.1457
    -3.1455  -3.1215  -3.1210  -3.1104  -3.0981  -3.0904  -3.0842  -3.0578
    -3.0412  -3.0398  -3.0343  -3.0331  -3.0260  -3.0237  -3.0230  -3.0179
    -3.0171  -3.0161  -3.0154  -3.0089  -3.0022  -3.0013  -2.9892  -2.9847
    -2.9816  -2.9805  -2.9798  -2.9748  -2.9748  -2.9709  -2.9684  -2.9507
    -2.9150  -2.9129  -2.8899  -2.8756  -2.8740  -2.8622  -2.8595  -2.8491
    -2.8474  -2.8278  -2.8218  -2.8203  -2.7995  -2.7960  -2.7954  -2.7829
    -2.7796  -2.7752  -2.7672  -2.7639  -2.7500  -2.7490  -2.7467  -2.7419
    -2.7231  -2.7223  -2.7205  -2.7178  -2.6626  -2.6542  -2.6460  -2.6365
    -2.6294  -2.6259  -2.6213  -2.5953  -2.5799  -2.5696  -2.5672  -2.5667
    -2.5633  -2.5588  -2.5529  -2.5406  -2.5279  -2.5250  -2.5193  -2.5159
    -2.5088  -2.5070  -2.5010  -2.4927  -2.4897  -2.4861  -2.4802  -2.4791
    -2.4730  -2.4722  -2.4664  -2.4655  -2.4597  -2.4489  -2.4351  -2.4345
    -2.4063  -2.3999  -2.3981  -2.3741  -2.3701  -2.3631  -2.3557  -2.3556
    -2.3485  -2.3450  -2.3355  -2.3322  -2.3151  -2.3002  -2.2927  -2.2717
    -2.2684  -2.2665  -2.2635  -2.2486  -2.2431  -2.2334  -2.2315  -2.2149
    -2.2124  -2.2053  -2.2051  -2.1977  -2.1969  -2.1781  -2.1447  -2.1359
    -2.1302  -2.1057  -2.1022  -2.0846  -2.0673  -2.0483  -2.0473  -2.0440
    -2.0371  -2.0317  -2.0021  -1.9981  -1.9947  -1.9639  -1.9605  -1.9571
    -1.9559  -1.9518  -1.9479  -1.9451  -1.9391  -1.9386  -1.9368  -1.9307
    -1.9297  -1.9274  -1.9169  -1.9120  -1.9076  -1.9019  -1.8645  -1.8555
    -1.8548  -1.8384  -1.8309  -1.8271  -1.8230  -1.8169  -1.8160  -1.8134
    -1.8113  -1.8013  -1.8000  -1.7988  -1.7932  -1.7663  -1.7595  -1.7584
    -1.7573  -1.7481  -1.7430  -1.7423  -1.7364  -1.7364  -1.7264  -1.7237
    -1.7061  -1.7045  -1.6987  -1.6978  -1.6879  -1.6742  -1.6700  -1.6656
    -1.6633  -1.6585  -1.6506  -1.6286  -1.6129  -1.6036  -1.5992  -1.5973
    -1.5790  -1.5758  -1.5753  -1.5738  -1.5600  -1.5446  -1.5042  -1.4990
    -1.4925  -1.4879  -1.4798  -1.4789  -1.4704  -1.4671  -1.4596  -1.4579
    -1.4510  -1.4442  -1.4335  -1.4323  -1.4260  -1.4131  -1.4125  -1.4072
    -1.3995  -1.3815  -1.3716  -1.3683  -1.3628  -1.3579  -1.3452  -1.3395
    -1.3276  -1.3255  -1.3217  -1.3072  -1.3025  -1.2975  -1.2931  -1.2872
    -1.2870  -1.2777  -1.2764  -1.2669  -1.2644  -1.2552  -1.2535  -1.2496
    -1.2415  -1.2396  -1.2278  -1.2275  -1.2198  -1.2191  -1.2190  -1.2187
    -1.2152  -1.2086  -1.2058  -1.1778  -1.1765  -1.1705  -1.1564  -1.1553
    -1.1448  -1.1400  -1.1377  -1.1334  -1.1299  -1.1249  -1.1244  -1.1216
    -1.1187  -1.1074  -1.1058  -1.0983  -1.0873  -1.0827  -1.0799  -1.0779
    -1.0770  -1.0756  -1.0723  -1.0627  -1.0578  -1.0548  -1.0536  -1.0507
    -1.0500  -1.0441  -1.0043  -0.9810  -0.9696  -0.9648  -0.9521  -0.9372
    -0.9356  -0.9291  -0.9244  -0.9206  -0.9160  -0.9076  -0.9002  -0.8818
    -0.8779  -0.8613  -0.8299  -0.8279  -0.8258  -0.7657  -0.6680  -0.6315
    -0.6014  -0.5944  -0.5465  -0.4527  -0.3795  -0.1935  -0.1600  -0.1188
    -0.0034   0.0222   0.0574   0.1554   0.1621   0.1921   0.2707   0.2883
     0.3157   0.3348   0.5888   0.5922   0.6432   0.6720   0.7321   0.7784
     0.8028   0.8036   0.9242   0.9708   0.9833   1.1555   1.1641   1.1986
     1.3019   1.3263   1.3634   1.3877   1.4797   1.5214   1.5259   1.7955
     1.8683   1.8792   1.8973   1.9001   1.9102   1.9753   1.9822   2.0317
     2.0617   2.0735   2.1945   2.4012   2.4064   2.4085   2.4469   2.4515
     2.6433   2.6541   2.6777   2.7100   2.7217   2.7963   2.8418   3.1811
     3.2036   3.2180   3.2818   3.3296   3.3643   3.3780   3.5444   3.5477
     3.5701   3.6171   3.6260   3.7994   3.8065   3.8940   3.9031   4.0005
     4.0227   4.1244   4.1805   4.2440   4.2475   4.2705   4.3019   4.3975
     4.4722   4.4975   4.5212   4.5650   4.6632   4.8054   4.8117   4.8412
     4.8500   4.8525   4.8941   4.9671   4.9891   5.0742   5.0908   5.1946
     5.2016   5.2120   5.2382   5.2620   5.3017   5.4406   5.5257   5.5328
     5.5332   5.5445   5.6500   5.7198   5.7320   5.8369   5.8523   5.8738
     5.8959   5.9065   5.9913   6.0159   6.0170   6.0266   6.0423   6.1381
     6.1475   6.1656   6.2222   6.3061   6.4012   6.4467   6.5144   6.5230
     6.5870   6.6310   6.6528   6.6893   6.7336   6.7468   6.9652   7.0237
     7.0573   7.1218   7.1868   7.1930   7.1959   7.2761   7.3480   7.3538
     7.3946   7.4064   7.5071   7.5556   7.5597   7.5994   7.6640   7.6863
     7.7119   7.7345   7.8544   7.8604   7.9900   8.0100   8.0852   8.1044
     8.1575   8.1985   8.2133   8.2634   8.3052   8.3404   8.3916   8.4528
     8.5069   8.5511   8.5616   8.5844   8.5969   8.6124   8.6570   8.6663
     8.6713   8.6790   8.6850   8.7346   9.1903   9.2382   9.2420   9.2476
     9.2624   9.3327   9.4129   9.4261   9.4283   9.4470   9.5128   9.5428
     9.5831   9.6820   9.7310   9.8729   9.9345  10.3744  10.4527  10.7283

     the Fermi energy is     0.7846 ev

!    total energy              =  -11427.09402084 Ry
     Harris-Foulkes estimate   =  -11427.09402173 Ry
     estimated scf accuracy    <       0.00000090 Ry

     The total energy is the sum of the following terms:

     one-electron contribution = -129707.74193844 Ry
     hartree contribution      =   65677.92601870 Ry
     xc contribution           =   -5523.82350436 Ry
     ewald contribution        =   58126.48229572 Ry
     smearing contrib. (-TS)   =       0.06310755 Ry

     convergence has been achieved in  22 iterations

     negative rho (up, down):  3.085E+00 0.000E+00

     Forces acting on atoms (cartesian axes, Ry/au):

     atom    1 type  1   force =    -0.00109261    0.00015734    0.00832191
     atom    2 type  1   force =    -0.00109236   -0.00021405    0.00804136
     atom    3 type  1   force =    -0.00024078    0.00021961    0.00897846
     atom    4 type  1   force =    -0.00024766   -0.00015885    0.00869815
     atom    5 type  1   force =     0.00010224    0.00024762    0.00905691
     atom    6 type  1   force =     0.00010140   -0.00012756    0.00877846
     atom    7 type  1   force =     0.00001957    0.00022981    0.00900440
     atom    8 type  1   force =     0.00002317   -0.00014519    0.00872397
     atom    9 type  1   force =     0.00019565    0.00023252    0.00900124
     atom   10 type  1   force =     0.00020316   -0.00014730    0.00871871
     atom   11 type  1   force =    -0.00008465    0.00024556    0.00903044
     atom   12 type  1   force =    -0.00008052   -0.00013738    0.00874592
     atom   13 type  1   force =     0.00072809    0.00026686    0.00880858
     atom   14 type  1   force =     0.00072583   -0.00011196    0.00852375
     atom   15 type  1   force =    -0.00136778    0.00041736   -0.00540933
     atom   16 type  1   force =    -0.00136773   -0.00007306   -0.00551321
     atom   17 type  1   force =    -0.00029925    0.00038656   -0.00545628
     atom   18 type  1   force =    -0.00030134   -0.00010464   -0.00556283
     atom   19 type  1   force =     0.00006815    0.00038922   -0.00537690
     atom   20 type  1   force =     0.00006959   -0.00009761   -0.00548283
     atom   21 type  1   force =    -0.00006250    0.00039393   -0.00525499
     atom   22 type  1   force =    -0.00006264   -0.00009529   -0.00536143
     atom   23 type  1   force =     0.00023632    0.00039721   -0.00518612
     atom   24 type  1   force =     0.00023634   -0.00009753   -0.00529238
     atom   25 type  1   force =    -0.00006533    0.00039206   -0.00524842
     atom   26 type  1   force =    -0.00006217   -0.00010713   -0.00535166
     atom   27 type  1   force =     0.00099443    0.00039347   -0.00532515
     atom   28 type  1   force =     0.00099469   -0.00010497   -0.00542619
     atom   29 type  1   force =    -0.00070214   -0.00010172    0.00854251
     atom   30 type  1   force =    -0.00070349   -0.00050470    0.00859240
     atom   31 type  1   force =    -0.00008954   -0.00012823    0.00879532
     atom   32 type  1   force =    -0.00008711   -0.00051948    0.00884408
     atom   33 type  1   force =     0.00019671   -0.00014190    0.00874662
     atom   34 type  1   force =     0.00019726   -0.00053061    0.00879323
     atom   35 type  1   force =     0.00010983   -0.00012483    0.00878221
     atom   36 type  1   force =     0.00010640   -0.00051877    0.00883211
     atom   37 type  1   force =    -0.00004261   -0.00012613    0.00872651
     atom   38 type  1   force =    -0.00004481   -0.00053237    0.00877695
     atom   39 type  1   force =     0.00006940   -0.00012865    0.00875311
     atom   40 type  1   force =     0.00007148   -0.00054300    0.00880103
     atom   41 type  1   force =     0.00082593   -0.00021377    0.00803451
     atom   42 type  1   force =     0.00083045   -0.00061831    0.00808196
     atom   43 type  1   force =    -0.00087040   -0.00010663   -0.00546539
     atom   44 type  1   force =    -0.00086766   -0.00062323   -0.00543387
     atom   45 type  1   force =    -0.00013853   -0.00010954   -0.00547359
     atom   46 type  1   force =    -0.00013555   -0.00062465   -0.00543364
     atom   47 type  1   force =     0.00017532   -0.00010056   -0.00536180
     atom   48 type  1   force =     0.00017425   -0.00061738   -0.00531816
     atom   49 type  1   force =     0.00007721   -0.00010326   -0.00524553
     atom   50 type  1   force =     0.00007385   -0.00061957   -0.00520666
     atom   51 type  1   force =    -0.00002178   -0.00010279   -0.00523635
     atom   52 type  1   force =    -0.00002407   -0.00061834   -0.00520893
     atom   53 type  1   force =     0.00013844   -0.00011213   -0.00533361
     atom   54 type  1   force =     0.00013777   -0.00063293   -0.00531122
     atom   55 type  1   force =     0.00113257   -0.00006948   -0.00541098
     atom   56 type  1   force =     0.00113816   -0.00058376   -0.00538350
     atom   57 type  1   force =    -0.00096539    0.00069128   -0.00841240
     atom   58 type  1   force =    -0.00095612    0.00023283   -0.00808567
     atom   59 type  1   force =    -0.00025950    0.00064541   -0.00907982
     atom   60 type  1   force =    -0.00025485    0.00017631   -0.00875068
     atom   61 type  1   force =    -0.00005618    0.00061810   -0.00914648
     atom   62 type  1   force =    -0.00005478    0.00014442   -0.00881645
     atom   63 type  1   force =    -0.00015075    0.00063453   -0.00906930
     atom   64 type  1   force =    -0.00015211    0.00016317   -0.00873747
     atom   65 type  1   force =     0.00014433    0.00063312   -0.00904422
     atom   66 type  1   force =     0.00013755    0.00016445   -0.00871518
     atom   67 type  1   force =     0.00001313    0.00062120   -0.00907022
     atom   68 type  1   force =     0.00001043    0.00015445   -0.00874607
     atom   69 type  1   force =     0.00090364    0.00059692   -0.00886916
     atom   70 type  1   force =     0.00090197    0.00012955   -0.00854482
     atom   71 type  1   force =    -0.00083756    0.00076288    0.00512482
     atom   72 type  1   force =    -0.00083543    0.00022045    0.00529069
     atom   73 type  1   force =    -0.00018238    0.00076863    0.00514789
     atom   74 type  1   force =    -0.00018231    0.00021964    0.00530934
     atom   75 type  1   force =     0.00008658    0.00076167    0.00519922
     atom   76 type  1   force =     0.00008764    0.00021116    0.00536127
     atom   77 type  1   force =     0.00001644    0.00076467    0.00526309
     atom   78 type  1   force =     0.00001370    0.00021595    0.00542681
     atom   79 type  1   force =    -0.00001165    0.00075825    0.00531735
     atom   80 type  1   force =    -0.00001424    0.00021776    0.00548510
     atom   81 type  1   force =     0.00021044    0.00076901    0.00531463
     atom   82 type  1   force =     0.00021065    0.00023028    0.00548752
     atom   83 type  1   force =     0.00121588    0.00071735    0.00520719
     atom   84 type  1   force =     0.00121307    0.00018588    0.00537965
     atom   85 type  1   force =    -0.00130221    0.00005249    0.00532201
     atom   86 type  1   force =    -0.00130861   -0.00074893    0.00549886
     atom   87 type  1   force =    -0.00030486    0.00008965    0.00529866
     atom   88 type  1   force =    -0.00030869   -0.00072538    0.00547982
     atom   89 type  1   force =    -0.00000601    0.00008504    0.00531668
     atom   90 type  1   force =    -0.00000722   -0.00073166    0.00550279
     atom   91 type  1   force =    -0.00014482    0.00008178    0.00538908
     atom   92 type  1   force =    -0.00014413   -0.00073698    0.00557380
     atom   93 type  1   force =     0.00020547    0.00007845    0.00545433
     atom   94 type  1   force =     0.00021090   -0.00073526    0.00563343
     atom   95 type  1   force =    -0.00001815    0.00008455    0.00549170
     atom   96 type  1   force =    -0.00001680   -0.00072379    0.00566716
     atom   97 type  1   force =     0.00107935    0.00008179    0.00541214
     atom   98 type  1   force =     0.00107906   -0.00072556    0.00558932
     atom   99 type  1   force =    -0.00063242    0.00011761   -0.00857872
     atom  100 type  1   force =    -0.00063482   -0.00029411   -0.00864379
     atom  101 type  1   force =    -0.00018194    0.00014402   -0.00883026
     atom  102 type  1   force =    -0.00018436   -0.00027570   -0.00889663
     atom  103 type  1   force =     0.00000999    0.00015609   -0.00875698
     atom  104 type  1   force =     0.00001115   -0.00026568   -0.00882512
     atom  105 type  1   force =    -0.00002052    0.00013886   -0.00876656
     atom  106 type  1   force =    -0.00001885   -0.00028011   -0.00883354
     atom  107 type  1   force =    -0.00002012    0.00014306   -0.00870622
     atom  108 type  1   force =    -0.00001920   -0.00026445   -0.00877090
     atom  109 type  1   force =     0.00021789    0.00014776   -0.00874244
     atom  110 type  1   force =     0.00021644   -0.00025512   -0.00880765
     atom  111 type  1   force =     0.00099362    0.00022883   -0.00804833
     atom  112 type  1   force =     0.00099903   -0.00016644   -0.00811312

     Total force =     0.076986     Total SCF correction =     0.005471

     Writing output data file ./ausurf.save/
 
     init_run     :     10.55s CPU     10.96s WALL (       1 calls)
     electrons    :    428.04s CPU    440.55s WALL (       1 calls)
     forces       :      2.45s CPU      2.53s WALL (       1 calls)

     Called by init_run:
     wfcinit      :      8.72s CPU      9.00s WALL (       1 calls)
     potinit      :      0.34s CPU      0.36s WALL (       1 calls)
     hinit0       :      0.28s CPU      0.31s WALL (       1 calls)

     Called by electrons:
     c_bands      :    329.90s CPU    339.68s WALL (      23 calls)
     sum_band     :     86.78s CPU     88.84s WALL (      23 calls)
     v_of_rho     :      7.11s CPU      7.26s WALL (      23 calls)
     newd         :      1.29s CPU      1.32s WALL (      23 calls)
     mix_rho      :      2.08s CPU      2.13s WALL (      23 calls)

     Called by c_bands:
     init_us_2    :      0.11s CPU      0.13s WALL (      96 calls)
     crmmdiagg    :    168.28s CPU    173.52s WALL (      46 calls)
     wfcrot       :    151.11s CPU    155.54s WALL (      44 calls)
     gsorth       :     18.59s CPU     18.87s WALL (      46 calls)

     Called by sum_band:
     sum_band:bec :      0.60s CPU      0.61s WALL (      46 calls)
     addusdens    :      0.21s CPU      0.23s WALL (      23 calls)

     Called by *rmmdiagg:
     h_psi        :    263.07s CPU    271.26s WALL (     232 calls)
     s_psi        :      5.35s CPU      5.76s WALL (     232 calls)
     cdiaghg      :     23.65s CPU     24.22s WALL (      44 calls)

     Called by h_psi:
     h_psi:calbec :     21.51s CPU     22.05s WALL (     232 calls)
     vloc_psi     :    235.96s CPU    242.98s WALL (     232 calls)
     add_vuspsi   :      5.52s CPU      6.14s WALL (     232 calls)

     General routines
     calbec       :     32.89s CPU     33.66s WALL (     286 calls)
     fft          :     11.98s CPU     12.17s WALL (     309 calls)
     ffts         :      0.53s CPU      0.53s WALL (      46 calls)
     fftw         :    307.07s CPU    315.78s WALL (  220862 calls)
     interpolate  :      0.84s CPU      0.85s WALL (      23 calls)
 
     Parallel routines
     fft_scatt_xy :      3.60s CPU      3.70s WALL (  221217 calls)
     fft_scatt_yz :    303.44s CPU    312.08s WALL (  221217 calls)
 
     PWSCF        :   9m 3.59s CPU  10m13.85s WALL

 
   This run was terminated on:  14:11:29  16Jul2020            

=------------------------------------------------------------------------------=
   JOB DONE.
=------------------------------------------------------------------------------=
