
     Program PWSCF v.6.5 starts on 16Jul2020 at 14:11:35 

     This program is part of the open-source Quantum ESPRESSO suite
     for quantum simulation of materials; please cite
         "P. Giannozzi et al., J. Phys.:Condens. Matter 21 395502 (2009);
         "P. Giannozzi et al., J. Phys.:Condens. Matter 29 465901 (2017);
          URL http://www.quantum-espresso.org", 
     in publications or presentations arising from this work. More details at
     http://www.quantum-espresso.org/quote

     Parallel version (MPI & OpenMP), running on      72 processor cores
     Number of MPI processes:                72
     Threads/MPI process:                     1

     MPI processes distributed on     2 nodes
     R & G space division:  proc/nbgrp/npool/nimage =      72
     Reading input from ausurf.in

     Current dimensions of program PWSCF are:
     Max number of different atomic species (ntypx) = 10
     Max number of k-points (npk) =  40000
     Max angular momentum in pseudopotentials (lmaxx) =  3

     Subspace diagonalization in iterative solution of the eigenvalue problem:
     one sub-group per band group will be used
     scalapack distributed-memory algorithm (size of sub-group:  8*  8 procs)

 
     Parallelization info
     --------------------
     sticks:   dense  smooth     PW     G-vecs:    dense   smooth      PW
     Min         164      82     21                29974    10598    1397
     Max         165      84     22                29981    10606    1406
     Sum       11837    5915   1537              2158381   763307  100747
 

     Title: 
      DEISA pw benchmark                                                        


     bravais-lattice index     =            8
     lattice parameter (alat)  =      38.7583  a.u.
     unit-cell volume          =   45191.4962 (a.u.)^3
     number of atoms/cell      =          112
     number of atomic types    =            1
     number of electrons       =      1232.00
     number of Kohn-Sham states=          800
     kinetic-energy cutoff     =      25.0000  Ry
     charge density cutoff     =     200.0000  Ry
     convergence threshold     =      1.0E-06
     mixing beta               =       0.7000
     number of iterations used =            8  plain     mixing
     Exchange-correlation=  SLA  PW   PBE  PBE
                           (   1   4   3   4   0   0   0)

     celldm(1)=  38.758300  celldm(2)=   0.494393  celldm(3)=   1.569966
     celldm(4)=   0.000000  celldm(5)=   0.000000  celldm(6)=   0.000000

     crystal axes: (cart. coord. in units of alat)
               a(1) = (   1.000000   0.000000   0.000000 )  
               a(2) = (   0.000000   0.494393   0.000000 )  
               a(3) = (   0.000000   0.000000   1.569966 )  

     reciprocal axes: (cart. coord. in units 2 pi/alat)
               b(1) = (  1.000000  0.000000  0.000000 )  
               b(2) = (  0.000000  2.022682  0.000000 )  
               b(3) = (  0.000000  0.000000  0.636956 )  


     PseudoPot. # 1 for Au read from file:
     ./Au.pbe-nd-van.UPF
     MD5 check sum: deb5c07af10777505a79e28f5b4b4115
     Pseudo is Ultrasoft + core correction, Zval = 11.0
     Generated by new atomic code, or converted to UPF format
     Using radial grid of  985 points,  3 beta functions with: 
                l(1) =   1
                l(2) =   2
                l(3) =   2
     Q(r) pseudized with  8 coefficients,  rinner =    1.100   1.100   1.100
                                                       1.100   1.100

     atomic species   valence    mass     pseudopotential
        AU            11.00   196.96000     Au( 1.00)

     No symmetry found



   Cartesian axes

     site n.     atom                  positions (alat units)
         1           AU  tau(   1) = (   1.4278395   1.9784974   0.3497317  )
         2           AU  tau(   2) = (   1.4278395   1.7313987   0.3497317  )
         3           AU  tau(   3) = (   1.5706478   1.9784974   0.3497317  )
         4           AU  tau(   4) = (   1.5706478   1.7313987   0.3497317  )
         5           AU  tau(   5) = (   1.7134072   1.9784974   0.3497317  )
         6           AU  tau(   6) = (   1.7134072   1.7313987   0.3497317  )
         7           AU  tau(   7) = (   1.8562156   1.9784974   0.3497317  )
         8           AU  tau(   8) = (   1.8562156   1.7313987   0.3497317  )
         9           AU  tau(   9) = (   1.9989753   1.9784974   0.3497317  )
        10           AU  tau(  10) = (   1.9989753   1.7313987   0.3497317  )
        11           AU  tau(  11) = (   2.1417836   1.9784974   0.3497317  )
        12           AU  tau(  12) = (   2.1417836   1.7313987   0.3497317  )
        13           AU  tau(  13) = (   2.2845431   1.9784974   0.3497317  )
        14           AU  tau(  14) = (   2.2845431   1.7313987   0.3497317  )
        15           AU  tau(  15) = (   1.4278395   2.0609450   0.2331545  )
        16           AU  tau(  16) = (   1.4278395   1.8138461   0.2331545  )
        17           AU  tau(  17) = (   1.5706478   2.0609450   0.2331545  )
        18           AU  tau(  18) = (   1.5706478   1.8138461   0.2331545  )
        19           AU  tau(  19) = (   1.7134072   2.0609450   0.2331545  )
        20           AU  tau(  20) = (   1.7134072   1.8138461   0.2331545  )
        21           AU  tau(  21) = (   1.8562156   2.0609450   0.2331545  )
        22           AU  tau(  22) = (   1.8562156   1.8138461   0.2331545  )
        23           AU  tau(  23) = (   1.9989753   2.0609450   0.2331545  )
        24           AU  tau(  24) = (   1.9989753   1.8138461   0.2331545  )
        25           AU  tau(  25) = (   2.1417836   2.0609450   0.2331545  )
        26           AU  tau(  26) = (   2.1417836   1.8138461   0.2331545  )
        27           AU  tau(  27) = (   2.2845431   2.0609450   0.2331545  )
        28           AU  tau(  28) = (   2.2845431   1.8138461   0.2331545  )
        29           AU  tau(  29) = (   1.4992193   2.1021445   0.3497317  )
        30           AU  tau(  30) = (   1.4992193   1.8550456   0.3497317  )
        31           AU  tau(  31) = (   1.6420276   2.1021445   0.3497317  )
        32           AU  tau(  32) = (   1.6420276   1.8550456   0.3497317  )
        33           AU  tau(  33) = (   1.7847871   2.1021445   0.3497317  )
        34           AU  tau(  34) = (   1.7847871   1.8550456   0.3497317  )
        35           AU  tau(  35) = (   1.9275954   2.1021445   0.3497317  )
        36           AU  tau(  36) = (   1.9275954   1.8550456   0.3497317  )
        37           AU  tau(  37) = (   2.0704038   2.1021445   0.3497317  )
        38           AU  tau(  38) = (   2.0704038   1.8550456   0.3497317  )
        39           AU  tau(  39) = (   2.2131632   2.1021445   0.3497317  )
        40           AU  tau(  40) = (   2.2131632   1.8550456   0.3497317  )
        41           AU  tau(  41) = (   2.3559716   2.1021445   0.3497317  )
        42           AU  tau(  42) = (   2.3559716   1.8550456   0.3497317  )
        43           AU  tau(  43) = (   1.4992193   1.6901992   0.2331545  )
        44           AU  tau(  44) = (   1.4992193   1.9374930   0.2331545  )
        45           AU  tau(  45) = (   1.6420276   1.6901992   0.2331545  )
        46           AU  tau(  46) = (   1.6420276   1.9374930   0.2331545  )
        47           AU  tau(  47) = (   1.7847871   1.6901992   0.2331545  )
        48           AU  tau(  48) = (   1.7847871   1.9374930   0.2331545  )
        49           AU  tau(  49) = (   1.9275954   1.6901992   0.2331545  )
        50           AU  tau(  50) = (   1.9275954   1.9374930   0.2331545  )
        51           AU  tau(  51) = (   2.0704038   1.6901992   0.2331545  )
        52           AU  tau(  52) = (   2.0704038   1.9374930   0.2331545  )
        53           AU  tau(  53) = (   2.2131632   1.6901992   0.2331545  )
        54           AU  tau(  54) = (   2.2131632   1.9374930   0.2331545  )
        55           AU  tau(  55) = (   2.3559716   1.6901992   0.2331545  )
        56           AU  tau(  56) = (   2.3559716   1.9374930   0.2331545  )
        57           AU  tau(  57) = (   1.4278395   1.9784974   0.0000000  )
        58           AU  tau(  58) = (   1.4278395   1.7313987   0.0000000  )
        59           AU  tau(  59) = (   1.5706478   1.9784974   0.0000000  )
        60           AU  tau(  60) = (   1.5706478   1.7313987   0.0000000  )
        61           AU  tau(  61) = (   1.7134072   1.9784974   0.0000000  )
        62           AU  tau(  62) = (   1.7134072   1.7313987   0.0000000  )
        63           AU  tau(  63) = (   1.8562156   1.9784974   0.0000000  )
        64           AU  tau(  64) = (   1.8562156   1.7313987   0.0000000  )
        65           AU  tau(  65) = (   1.9989753   1.9784974   0.0000000  )
        66           AU  tau(  66) = (   1.9989753   1.7313987   0.0000000  )
        67           AU  tau(  67) = (   2.1417836   1.9784974   0.0000000  )
        68           AU  tau(  68) = (   2.1417836   1.7313987   0.0000000  )
        69           AU  tau(  69) = (   2.2845431   1.9784974   0.0000000  )
        70           AU  tau(  70) = (   2.2845431   1.7313987   0.0000000  )
        71           AU  tau(  71) = (   1.4992193   2.0196968   0.1165772  )
        72           AU  tau(  72) = (   1.4992193   1.7725979   0.1165772  )
        73           AU  tau(  73) = (   1.6420276   2.0196968   0.1165772  )
        74           AU  tau(  74) = (   1.6420276   1.7725979   0.1165772  )
        75           AU  tau(  75) = (   1.7847871   2.0196968   0.1165772  )
        76           AU  tau(  76) = (   1.7847871   1.7725979   0.1165772  )
        77           AU  tau(  77) = (   1.9275954   2.0196968   0.1165772  )
        78           AU  tau(  78) = (   1.9275954   1.7725979   0.1165772  )
        79           AU  tau(  79) = (   2.0704038   2.0196968   0.1165772  )
        80           AU  tau(  80) = (   2.0704038   1.7725979   0.1165772  )
        81           AU  tau(  81) = (   2.2131632   2.0196968   0.1165772  )
        82           AU  tau(  82) = (   2.2131632   1.7725979   0.1165772  )
        83           AU  tau(  83) = (   2.3559716   2.0196968   0.1165772  )
        84           AU  tau(  84) = (   2.3559716   1.7725979   0.1165772  )
        85           AU  tau(  85) = (   1.4278395   2.1433437   0.1165772  )
        86           AU  tau(  86) = (   1.4278395   1.8962938   0.1165772  )
        87           AU  tau(  87) = (   1.5706478   2.1433437   0.1165772  )
        88           AU  tau(  88) = (   1.5706478   1.8962938   0.1165772  )
        89           AU  tau(  89) = (   1.7134072   2.1433437   0.1165772  )
        90           AU  tau(  90) = (   1.7134072   1.8962938   0.1165772  )
        91           AU  tau(  91) = (   1.8562156   2.1433437   0.1165772  )
        92           AU  tau(  92) = (   1.8562156   1.8962938   0.1165772  )
        93           AU  tau(  93) = (   1.9989753   2.1433437   0.1165772  )
        94           AU  tau(  94) = (   1.9989753   1.8962938   0.1165772  )
        95           AU  tau(  95) = (   2.1417836   2.1433437   0.1165772  )
        96           AU  tau(  96) = (   2.1417836   1.8962938   0.1165772  )
        97           AU  tau(  97) = (   2.2845431   2.1433437   0.1165772  )
        98           AU  tau(  98) = (   2.2845431   1.8962938   0.1165772  )
        99           AU  tau(  99) = (   1.4992193   2.1021445   0.0000000  )
       100           AU  tau( 100) = (   1.4992193   1.8550456   0.0000000  )
       101           AU  tau( 101) = (   1.6420276   2.1021445   0.0000000  )
       102           AU  tau( 102) = (   1.6420276   1.8550456   0.0000000  )
       103           AU  tau( 103) = (   1.7847871   2.1021445   0.0000000  )
       104           AU  tau( 104) = (   1.7847871   1.8550456   0.0000000  )
       105           AU  tau( 105) = (   1.9275954   2.1021445   0.0000000  )
       106           AU  tau( 106) = (   1.9275954   1.8550456   0.0000000  )
       107           AU  tau( 107) = (   2.0704038   2.1021445   0.0000000  )
       108           AU  tau( 108) = (   2.0704038   1.8550456   0.0000000  )
       109           AU  tau( 109) = (   2.2131632   2.1021445   0.0000000  )
       110           AU  tau( 110) = (   2.2131632   1.8550456   0.0000000  )
       111           AU  tau( 111) = (   2.3559716   2.1021445   0.0000000  )
       112           AU  tau( 112) = (   2.3559716   1.8550456   0.0000000  )

     number of k points=     2  Marzari-Vanderbilt smearing, width (Ry)=  0.0500
                       cart. coord. in units 2pi/alat
        k(    1) = (   0.2500000   0.5056706   0.0000000), wk =   1.0000000
        k(    2) = (  -0.2500000   0.5056706   0.0000000), wk =   1.0000000

     Dense  grid:  2158381 G-vectors     FFT dimensions: ( 180,  90, 288)

     Smooth grid:   763307 G-vectors     FFT dimensions: ( 125,  64, 200)

     Estimated max dynamical RAM per process >     315.71 MB

     Estimated total dynamical RAM >      22.20 GB

     Initial potential from superposition of free atoms

     starting charge 1230.69946, renormalised to 1232.00000

     negative rho (up, down):  3.043E+00 0.000E+00
     Starting wfcs are 1008 randomized atomic wfcs

     total cpu time spent up to now is        9.8 secs

     Self-consistent Calculation

     iteration #  1     ecut=    25.00 Ry     beta= 0.70
     Davidson diagonalization with overlap
     ethr =  1.00E-02,  avg # of iterations =  6.5

     Threshold (ethr) on eigenvalues was too large:
     Diagonalizing with lowered threshold

     Davidson diagonalization with overlap
     ethr =  4.47E-04,  avg # of iterations =  6.5

     negative rho (up, down):  2.993E+00 0.000E+00

     total cpu time spent up to now is       62.8 secs

     WARNING: integrated charge=  1232.10560469, expected=  1232.00000000

     total energy              =  -11423.47093629 Ry
     Harris-Foulkes estimate   =  -11428.44875623 Ry
     estimated scf accuracy    <       6.34505307 Ry

     iteration #  2     ecut=    25.00 Ry     beta= 0.70
     Davidson diagonalization with overlap
     ethr =  5.15E-04,  avg # of iterations = 12.0

     negative rho (up, down):  2.989E+00 0.000E+00

     total cpu time spent up to now is      129.8 secs

     WARNING: integrated charge=  1232.08166048, expected=  1232.00000000

     total energy              =  -11407.61911908 Ry
     Harris-Foulkes estimate   =  -11440.36894004 Ry
     estimated scf accuracy    <     204.69343589 Ry

     iteration #  3     ecut=    25.00 Ry     beta= 0.70
     Davidson diagonalization with overlap
     ethr =  5.15E-04,  avg # of iterations =  6.0

     negative rho (up, down):  3.024E+00 0.000E+00

     total cpu time spent up to now is      177.2 secs

     WARNING: integrated charge=  1232.05429229, expected=  1232.00000000

     total energy              =  -11425.43778261 Ry
     Harris-Foulkes estimate   =  -11428.15358068 Ry
     estimated scf accuracy    <       8.95213570 Ry

     iteration #  4     ecut=    25.00 Ry     beta= 0.70
     Davidson diagonalization with overlap
     ethr =  5.15E-04,  avg # of iterations =  7.0

     negative rho (up, down):  3.037E+00 0.000E+00

     total cpu time spent up to now is      207.4 secs

     WARNING: integrated charge=  1232.04702946, expected=  1232.00000000

     total energy              =  -11422.15207763 Ry
     Harris-Foulkes estimate   =  -11430.53252361 Ry
     estimated scf accuracy    <     115.90942029 Ry

     iteration #  5     ecut=    25.00 Ry     beta= 0.70
     Davidson diagonalization with overlap
     ethr =  5.15E-04,  avg # of iterations =  4.0

     negative rho (up, down):  3.049E+00 0.000E+00

     total cpu time spent up to now is      230.7 secs

     WARNING: integrated charge=  1232.03705010, expected=  1232.00000000

     total energy              =  -11426.87206537 Ry
     Harris-Foulkes estimate   =  -11427.25181340 Ry
     estimated scf accuracy    <       1.54676874 Ry

     iteration #  6     ecut=    25.00 Ry     beta= 0.70
     Davidson diagonalization with overlap
     ethr =  1.26E-04,  avg # of iterations =  9.0

     negative rho (up, down):  3.056E+00 0.000E+00

     total cpu time spent up to now is      260.6 secs

     WARNING: integrated charge=  1232.03012605, expected=  1232.00000000

     total energy              =  -11426.79195320 Ry
     Harris-Foulkes estimate   =  -11427.41807063 Ry
     estimated scf accuracy    <       6.99093329 Ry

     iteration #  7     ecut=    25.00 Ry     beta= 0.70
     Davidson diagonalization with overlap
     ethr =  1.26E-04,  avg # of iterations =  5.5

     negative rho (up, down):  3.061E+00 0.000E+00

     total cpu time spent up to now is      284.7 secs

     WARNING: integrated charge=  1232.06555090, expected=  1232.00000000

     total energy              =  -11427.05824804 Ry
     Harris-Foulkes estimate   =  -11427.13428326 Ry
     estimated scf accuracy    <       0.58869263 Ry

     iteration #  8     ecut=    25.00 Ry     beta= 0.70
     Davidson diagonalization with overlap
     ethr =  4.78E-05,  avg # of iterations =  9.0

     negative rho (up, down):  3.068E+00 0.000E+00

     total cpu time spent up to now is      311.1 secs

     WARNING: integrated charge=  1232.07564824, expected=  1232.00000000

     total energy              =  -11427.07716361 Ry
     Harris-Foulkes estimate   =  -11427.11024276 Ry
     estimated scf accuracy    <       0.19615868 Ry

     iteration #  9     ecut=    25.00 Ry     beta= 0.70
     Davidson diagonalization with overlap
     ethr =  1.59E-05,  avg # of iterations = 18.5

     negative rho (up, down):  3.076E+00 0.000E+00

     total cpu time spent up to now is      352.9 secs

     WARNING: integrated charge=  1232.07784682, expected=  1232.00000000

     total energy              =  -11427.06893865 Ry
     Harris-Foulkes estimate   =  -11427.11557689 Ry
     estimated scf accuracy    <       0.27956428 Ry

     iteration # 10     ecut=    25.00 Ry     beta= 0.70
     Davidson diagonalization with overlap
     ethr =  1.59E-05,  avg # of iterations =  8.0

     negative rho (up, down):  3.073E+00 0.000E+00

     total cpu time spent up to now is      379.9 secs

     WARNING: integrated charge=  1232.11276165, expected=  1232.00000000

     total energy              =  -11427.08461534 Ry
     Harris-Foulkes estimate   =  -11427.10930282 Ry
     estimated scf accuracy    <       0.39624359 Ry

     iteration # 11     ecut=    25.00 Ry     beta= 0.70
     Davidson diagonalization with overlap
     ethr =  1.59E-05,  avg # of iterations =  3.0

     negative rho (up, down):  3.079E+00 0.000E+00

     total cpu time spent up to now is      403.3 secs

     WARNING: integrated charge=  1232.30296174, expected=  1232.00000000

     total energy              =  -11427.08279456 Ry
     Harris-Foulkes estimate   =  -11427.09475808 Ry
     estimated scf accuracy    <       0.03361868 Ry

     iteration # 12     ecut=    25.00 Ry     beta= 0.70
     Davidson diagonalization with overlap
     ethr =  2.73E-06,  avg # of iterations = 18.5

     negative rho (up, down):  3.081E+00 0.000E+00

     total cpu time spent up to now is      452.2 secs

     WARNING: integrated charge=  1232.28370241, expected=  1232.00000000

     total energy              =  -11427.08906344 Ry
     Harris-Foulkes estimate   =  -11427.10561569 Ry
     estimated scf accuracy    <       0.08619380 Ry

     iteration # 13     ecut=    25.00 Ry     beta= 0.70
     Davidson diagonalization with overlap
     ethr =  2.73E-06,  avg # of iterations = 11.0

     negative rho (up, down):  3.082E+00 0.000E+00

     total cpu time spent up to now is      486.7 secs

     WARNING: integrated charge=  1232.24031238, expected=  1232.00000000

     total energy              =  -11427.09233560 Ry
     Harris-Foulkes estimate   =  -11427.09830213 Ry
     estimated scf accuracy    <       0.02456911 Ry

     iteration # 14     ecut=    25.00 Ry     beta= 0.70
     Davidson diagonalization with overlap
     ethr =  1.99E-06,  avg # of iterations = 11.0

     negative rho (up, down):  3.082E+00 0.000E+00

     total cpu time spent up to now is      519.1 secs

     WARNING: integrated charge=  1232.19462327, expected=  1232.00000000

     total energy              =  -11427.09005807 Ry
     Harris-Foulkes estimate   =  -11427.09937568 Ry
     estimated scf accuracy    <       0.07757466 Ry

     iteration # 15     ecut=    25.00 Ry     beta= 0.70
     Davidson diagonalization with overlap
     ethr =  1.99E-06,  avg # of iterations =  5.0

     negative rho (up, down):  3.082E+00 0.000E+00

     total cpu time spent up to now is      542.2 secs

     WARNING: integrated charge=  1232.16823362, expected=  1232.00000000

     total energy              =  -11427.09400790 Ry
     Harris-Foulkes estimate   =  -11427.09528908 Ry
     estimated scf accuracy    <       0.01089146 Ry

     iteration # 16     ecut=    25.00 Ry     beta= 0.70
     Davidson diagonalization with overlap
     ethr =  8.84E-07,  avg # of iterations =  3.0

     negative rho (up, down):  3.082E+00 0.000E+00

     total cpu time spent up to now is      561.6 secs

     WARNING: integrated charge=  1232.15860386, expected=  1232.00000000

     total energy              =  -11427.09408823 Ry
     Harris-Foulkes estimate   =  -11427.09531135 Ry
     estimated scf accuracy    <       0.01275128 Ry

     iteration # 17     ecut=    25.00 Ry     beta= 0.70
     Davidson diagonalization with overlap
     ethr =  8.84E-07,  avg # of iterations =  1.0

     negative rho (up, down):  3.083E+00 0.000E+00

     total cpu time spent up to now is      578.8 secs

     WARNING: integrated charge=  1232.16202966, expected=  1232.00000000

     total energy              =  -11427.09369893 Ry
     Harris-Foulkes estimate   =  -11427.09531012 Ry
     estimated scf accuracy    <       0.01640072 Ry

     iteration # 18     ecut=    25.00 Ry     beta= 0.70
     Davidson diagonalization with overlap
     ethr =  8.84E-07,  avg # of iterations =  1.0

     negative rho (up, down):  3.083E+00 0.000E+00

     total cpu time spent up to now is      596.0 secs

     WARNING: integrated charge=  1232.15197801, expected=  1232.00000000

     total energy              =  -11427.09411107 Ry
     Harris-Foulkes estimate   =  -11427.09522657 Ry
     estimated scf accuracy    <       0.00882597 Ry

     iteration # 19     ecut=    25.00 Ry     beta= 0.70
     Davidson diagonalization with overlap
     ethr =  7.16E-07,  avg # of iterations =  1.0

     negative rho (up, down):  3.083E+00 0.000E+00

     total cpu time spent up to now is      613.3 secs

     WARNING: integrated charge=  1232.15259758, expected=  1232.00000000

     total energy              =  -11427.09385483 Ry
     Harris-Foulkes estimate   =  -11427.09540822 Ry
     estimated scf accuracy    <       0.01349748 Ry

     iteration # 20     ecut=    25.00 Ry     beta= 0.70
     Davidson diagonalization with overlap
     ethr =  7.16E-07,  avg # of iterations =  2.0

     negative rho (up, down):  3.084E+00 0.000E+00

     total cpu time spent up to now is      631.7 secs

     WARNING: integrated charge=  1232.14438756, expected=  1232.00000000

     total energy              =  -11427.09310701 Ry
     Harris-Foulkes estimate   =  -11427.09557738 Ry
     estimated scf accuracy    <       0.01600928 Ry

     iteration # 21     ecut=    25.00 Ry     beta= 0.70
     Davidson diagonalization with overlap
     ethr =  7.16E-07,  avg # of iterations =  5.0

     negative rho (up, down):  3.084E+00 0.000E+00

     total cpu time spent up to now is      653.9 secs

     WARNING: integrated charge=  1232.15784987, expected=  1232.00000000

     total energy              =  -11427.09308063 Ry
     Harris-Foulkes estimate   =  -11427.09620126 Ry
     estimated scf accuracy    <       0.02880883 Ry

     iteration # 22     ecut=    25.00 Ry     beta= 0.70
     Davidson diagonalization with overlap
     ethr =  7.16E-07,  avg # of iterations =  3.5

     negative rho (up, down):  3.084E+00 0.000E+00

     total cpu time spent up to now is      674.9 secs

     WARNING: integrated charge=  1232.14638668, expected=  1232.00000000

     total energy              =  -11427.09397618 Ry
     Harris-Foulkes estimate   =  -11427.09491205 Ry
     estimated scf accuracy    <       0.01809680 Ry

     iteration # 23     ecut=    25.00 Ry     beta= 0.70
     Davidson diagonalization with overlap
     ethr =  7.16E-07,  avg # of iterations =  1.0

     negative rho (up, down):  3.084E+00 0.000E+00

     total cpu time spent up to now is      692.2 secs

     WARNING: integrated charge=  1232.15618269, expected=  1232.00000000

     total energy              =  -11427.09412276 Ry
     Harris-Foulkes estimate   =  -11427.09524163 Ry
     estimated scf accuracy    <       0.01487314 Ry

     iteration # 24     ecut=    25.00 Ry     beta= 0.70
     Davidson diagonalization with overlap
     ethr =  7.16E-07,  avg # of iterations =  1.0

     negative rho (up, down):  3.084E+00 0.000E+00

     total cpu time spent up to now is      709.4 secs

     WARNING: integrated charge=  1232.15924894, expected=  1232.00000000

     total energy              =  -11427.09475470 Ry
     Harris-Foulkes estimate   =  -11427.09506764 Ry
     estimated scf accuracy    <       0.01403877 Ry

     iteration # 25     ecut=    25.00 Ry     beta= 0.70
     Davidson diagonalization with overlap
     ethr =  7.16E-07,  avg # of iterations =  1.0

     negative rho (up, down):  3.084E+00 0.000E+00

     total cpu time spent up to now is      727.2 secs

     WARNING: integrated charge=  1232.16242021, expected=  1232.00000000

     total energy              =  -11427.09462067 Ry
     Harris-Foulkes estimate   =  -11427.09508456 Ry
     estimated scf accuracy    <       0.00477756 Ry

     iteration # 26     ecut=    25.00 Ry     beta= 0.70
     Davidson diagonalization with overlap
     ethr =  3.88E-07,  avg # of iterations =  1.0

     negative rho (up, down):  3.084E+00 0.000E+00

     total cpu time spent up to now is      744.7 secs

     WARNING: integrated charge=  1232.16626717, expected=  1232.00000000

     total energy              =  -11427.09459061 Ry
     Harris-Foulkes estimate   =  -11427.09545247 Ry
     estimated scf accuracy    <       0.01586446 Ry

     iteration # 27     ecut=    25.00 Ry     beta= 0.70
     Davidson diagonalization with overlap
     ethr =  3.88E-07,  avg # of iterations =  1.0

     negative rho (up, down):  3.084E+00 0.000E+00

     total cpu time spent up to now is      761.9 secs

     WARNING: integrated charge=  1232.16699010, expected=  1232.00000000

     total energy              =  -11427.09475874 Ry
     Harris-Foulkes estimate   =  -11427.09532200 Ry
     estimated scf accuracy    <       0.01272761 Ry

     iteration # 28     ecut=    25.00 Ry     beta= 0.70
     Davidson diagonalization with overlap
     ethr =  3.88E-07,  avg # of iterations =  1.0

     negative rho (up, down):  3.085E+00 0.000E+00

     total cpu time spent up to now is      779.1 secs

     WARNING: integrated charge=  1232.16672423, expected=  1232.00000000

     total energy              =  -11427.09442152 Ry
     Harris-Foulkes estimate   =  -11427.09540985 Ry
     estimated scf accuracy    <       0.00631065 Ry

     iteration # 29     ecut=    25.00 Ry     beta= 0.70
     Davidson diagonalization with overlap
     ethr =  3.88E-07,  avg # of iterations =  2.0

     negative rho (up, down):  3.085E+00 0.000E+00

     total cpu time spent up to now is      797.5 secs

     WARNING: integrated charge=  1232.15976300, expected=  1232.00000000

     total energy              =  -11427.09385075 Ry
     Harris-Foulkes estimate   =  -11427.09559285 Ry
     estimated scf accuracy    <       0.04410225 Ry

     iteration # 30     ecut=    25.00 Ry     beta= 0.70
     Davidson diagonalization with overlap
     ethr =  3.88E-07,  avg # of iterations =  1.0

     negative rho (up, down):  3.085E+00 0.000E+00

     total cpu time spent up to now is      814.8 secs

     WARNING: integrated charge=  1232.18201503, expected=  1232.00000000

     total energy              =  -11427.09386469 Ry
     Harris-Foulkes estimate   =  -11427.09552136 Ry
     estimated scf accuracy    <       0.01563896 Ry

     iteration # 31     ecut=    25.00 Ry     beta= 0.70
     Davidson diagonalization with overlap
     ethr =  3.88E-07,  avg # of iterations =  3.5

     negative rho (up, down):  3.085E+00 0.000E+00

     total cpu time spent up to now is      836.0 secs

     WARNING: integrated charge=  1232.18238533, expected=  1232.00000000

     total energy              =  -11427.09220625 Ry
     Harris-Foulkes estimate   =  -11427.09777825 Ry
     estimated scf accuracy    <       0.05061089 Ry

     iteration # 32     ecut=    25.00 Ry     beta= 0.70
     Davidson diagonalization with overlap
     ethr =  3.88E-07,  avg # of iterations =  4.0

     negative rho (up, down):  3.085E+00 0.000E+00

     total cpu time spent up to now is      860.6 secs

     WARNING: integrated charge=  1232.16373546, expected=  1232.00000000

     total energy              =  -11427.09330817 Ry
     Harris-Foulkes estimate   =  -11427.09642521 Ry
     estimated scf accuracy    <       0.02245733 Ry

     iteration # 33     ecut=    25.00 Ry     beta= 0.70
     Davidson diagonalization with overlap
     ethr =  3.88E-07,  avg # of iterations =  2.0

     negative rho (up, down):  3.085E+00 0.000E+00

     total cpu time spent up to now is      879.1 secs

     WARNING: integrated charge=  1232.16089490, expected=  1232.00000000

     total energy              =  -11427.09388938 Ry
     Harris-Foulkes estimate   =  -11427.09512786 Ry
     estimated scf accuracy    <       0.07576738 Ry

     iteration # 34     ecut=    25.00 Ry     beta= 0.70
     Davidson diagonalization with overlap
     ethr =  3.88E-07,  avg # of iterations =  1.0

     negative rho (up, down):  3.085E+00 0.000E+00

     total cpu time spent up to now is      896.5 secs

     WARNING: integrated charge=  1232.16578473, expected=  1232.00000000

     total energy              =  -11427.09417483 Ry
     Harris-Foulkes estimate   =  -11427.09503058 Ry
     estimated scf accuracy    <       0.00779256 Ry

     iteration # 35     ecut=    25.00 Ry     beta= 0.70
     Davidson diagonalization with overlap
     ethr =  3.88E-07,  avg # of iterations =  2.0

     negative rho (up, down):  3.085E+00 0.000E+00

     total cpu time spent up to now is      915.0 secs

     WARNING: integrated charge=  1232.16220990, expected=  1232.00000000

     total energy              =  -11427.09389270 Ry
     Harris-Foulkes estimate   =  -11427.09589553 Ry
     estimated scf accuracy    <       0.01567481 Ry

     iteration # 36     ecut=    25.00 Ry     beta= 0.70
     Davidson diagonalization with overlap
     ethr =  3.88E-07,  avg # of iterations =  3.0

     negative rho (up, down):  3.085E+00 0.000E+00

     total cpu time spent up to now is      935.2 secs

     WARNING: integrated charge=  1232.15345298, expected=  1232.00000000

     total energy              =  -11427.09289582 Ry
     Harris-Foulkes estimate   =  -11427.09644154 Ry
     estimated scf accuracy    <       0.04961652 Ry

     iteration # 37     ecut=    25.00 Ry     beta= 0.70
     Davidson diagonalization with overlap
     ethr =  3.88E-07,  avg # of iterations =  3.0

     negative rho (up, down):  3.085E+00 0.000E+00

     total cpu time spent up to now is      954.9 secs

     WARNING: integrated charge=  1232.14719006, expected=  1232.00000000

     total energy              =  -11427.09391495 Ry
     Harris-Foulkes estimate   =  -11427.09528039 Ry
     estimated scf accuracy    <       0.01443770 Ry

     iteration # 38     ecut=    25.00 Ry     beta= 0.70
     Davidson diagonalization with overlap
     ethr =  3.88E-07,  avg # of iterations =  2.0

     negative rho (up, down):  3.085E+00 0.000E+00

     total cpu time spent up to now is      973.4 secs

     WARNING: integrated charge=  1232.15077791, expected=  1232.00000000

     total energy              =  -11427.09407662 Ry
     Harris-Foulkes estimate   =  -11427.09535766 Ry
     estimated scf accuracy    <       0.01748462 Ry

     iteration # 39     ecut=    25.00 Ry     beta= 0.70
     Davidson diagonalization with overlap
     ethr =  3.88E-07,  avg # of iterations =  1.0

     negative rho (up, down):  3.085E+00 0.000E+00

     total cpu time spent up to now is      990.7 secs

     WARNING: integrated charge=  1232.15471295, expected=  1232.00000000

     total energy              =  -11427.09424168 Ry
     Harris-Foulkes estimate   =  -11427.09496526 Ry
     estimated scf accuracy    <       0.00428681 Ry

     iteration # 40     ecut=    25.00 Ry     beta= 0.70
     Davidson diagonalization with overlap
     ethr =  3.48E-07,  avg # of iterations =  2.0

     negative rho (up, down):  3.085E+00 0.000E+00

     total cpu time spent up to now is     1009.2 secs

     WARNING: integrated charge=  1232.15509172, expected=  1232.00000000

     total energy              =  -11427.09363119 Ry
     Harris-Foulkes estimate   =  -11427.09580220 Ry
     estimated scf accuracy    <       0.02240680 Ry

     iteration # 41     ecut=    25.00 Ry     beta= 0.70
     Davidson diagonalization with overlap
     ethr =  3.48E-07,  avg # of iterations =  2.0

     negative rho (up, down):  3.085E+00 0.000E+00

     total cpu time spent up to now is     1027.5 secs

     WARNING: integrated charge=  1232.16085428, expected=  1232.00000000

     total energy              =  -11427.09426730 Ry
     Harris-Foulkes estimate   =  -11427.09524795 Ry
     estimated scf accuracy    <       0.01694661 Ry

     iteration # 42     ecut=    25.00 Ry     beta= 0.70
     Davidson diagonalization with overlap
     ethr =  3.48E-07,  avg # of iterations =  1.0

     negative rho (up, down):  3.085E+00 0.000E+00

     total cpu time spent up to now is     1044.8 secs

     WARNING: integrated charge=  1232.16866165, expected=  1232.00000000

     total energy              =  -11427.09459725 Ry
     Harris-Foulkes estimate   =  -11427.09504303 Ry
     estimated scf accuracy    <       0.00652267 Ry

     iteration # 43     ecut=    25.00 Ry     beta= 0.70
     Davidson diagonalization with overlap
     ethr =  3.48E-07,  avg # of iterations =  1.0

     negative rho (up, down):  3.085E+00 0.000E+00

     total cpu time spent up to now is     1062.0 secs

     WARNING: integrated charge=  1232.16324576, expected=  1232.00000000

     total energy              =  -11427.09455513 Ry
     Harris-Foulkes estimate   =  -11427.09513042 Ry
     estimated scf accuracy    <       0.00674854 Ry

     iteration # 44     ecut=    25.00 Ry     beta= 0.70
     Davidson diagonalization with overlap
     ethr =  3.48E-07,  avg # of iterations =  2.0

     negative rho (up, down):  3.085E+00 0.000E+00

     total cpu time spent up to now is     1080.4 secs

     WARNING: integrated charge=  1232.15769361, expected=  1232.00000000

     total energy              =  -11427.09403873 Ry
     Harris-Foulkes estimate   =  -11427.09552110 Ry
     estimated scf accuracy    <       0.01159198 Ry

     iteration # 45     ecut=    25.00 Ry     beta= 0.70
     Davidson diagonalization with overlap
     ethr =  3.48E-07,  avg # of iterations =  2.0

     negative rho (up, down):  3.085E+00 0.000E+00

     total cpu time spent up to now is     1098.8 secs

     WARNING: integrated charge=  1232.16497548, expected=  1232.00000000

     total energy              =  -11427.09421256 Ry
     Harris-Foulkes estimate   =  -11427.09539294 Ry
     estimated scf accuracy    <       0.00878480 Ry

     iteration # 46     ecut=    25.00 Ry     beta= 0.70
     Davidson diagonalization with overlap
     ethr =  3.48E-07,  avg # of iterations =  2.0

     negative rho (up, down):  3.085E+00 0.000E+00

     total cpu time spent up to now is     1117.3 secs

     WARNING: integrated charge=  1232.17464962, expected=  1232.00000000

     total energy              =  -11427.09404746 Ry
     Harris-Foulkes estimate   =  -11427.09545889 Ry
     estimated scf accuracy    <       0.01153003 Ry

     iteration # 47     ecut=    25.00 Ry     beta= 0.70
     Davidson diagonalization with overlap
     ethr =  3.48E-07,  avg # of iterations =  4.0

     negative rho (up, down):  3.085E+00 0.000E+00

     total cpu time spent up to now is     1139.5 secs

     WARNING: integrated charge=  1232.19055747, expected=  1232.00000000

     total energy              =  -11427.09225041 Ry
     Harris-Foulkes estimate   =  -11427.09756067 Ry
     estimated scf accuracy    <       0.05832477 Ry

     iteration # 48     ecut=    25.00 Ry     beta= 0.70
     Davidson diagonalization with overlap
     ethr =  3.48E-07,  avg # of iterations =  4.0

     negative rho (up, down):  3.085E+00 0.000E+00

     total cpu time spent up to now is     1161.8 secs

     WARNING: integrated charge=  1232.18021837, expected=  1232.00000000

     total energy              =  -11427.09436381 Ry
     Harris-Foulkes estimate   =  -11427.09624279 Ry
     estimated scf accuracy    <       0.01853822 Ry

     iteration # 49     ecut=    25.00 Ry     beta= 0.70
     Davidson diagonalization with overlap
     ethr =  3.48E-07,  avg # of iterations =  2.0

     negative rho (up, down):  3.085E+00 0.000E+00

     total cpu time spent up to now is     1180.1 secs

     WARNING: integrated charge=  1232.18773371, expected=  1232.00000000

     total energy              =  -11427.09445618 Ry
     Harris-Foulkes estimate   =  -11427.09551283 Ry
     estimated scf accuracy    <       0.00893625 Ry

     iteration # 50     ecut=    25.00 Ry     beta= 0.70
     Davidson diagonalization with overlap
     ethr =  3.48E-07,  avg # of iterations =  1.5

     negative rho (up, down):  3.085E+00 0.000E+00

     total cpu time spent up to now is     1197.9 secs

     WARNING: integrated charge=  1232.18974909, expected=  1232.00000000

     total energy              =  -11427.09439609 Ry
     Harris-Foulkes estimate   =  -11427.09565566 Ry
     estimated scf accuracy    <       0.01244656 Ry

     iteration # 51     ecut=    25.00 Ry     beta= 0.70
     Davidson diagonalization with overlap
     ethr =  3.48E-07,  avg # of iterations =  1.0

     negative rho (up, down):  3.085E+00 0.000E+00

     total cpu time spent up to now is     1215.2 secs

     WARNING: integrated charge=  1232.18440597, expected=  1232.00000000

     total energy              =  -11427.09504571 Ry
     Harris-Foulkes estimate   =  -11427.09548098 Ry
     estimated scf accuracy    <       0.00744769 Ry

     iteration # 52     ecut=    25.00 Ry     beta= 0.70
     Davidson diagonalization with overlap
     ethr =  3.48E-07,  avg # of iterations =  1.0

     negative rho (up, down):  3.085E+00 0.000E+00

     total cpu time spent up to now is     1232.4 secs

     WARNING: integrated charge=  1232.17309573, expected=  1232.00000000

     total energy              =  -11427.09471681 Ry
     Harris-Foulkes estimate   =  -11427.09565693 Ry
     estimated scf accuracy    <       0.00899951 Ry

     iteration # 53     ecut=    25.00 Ry     beta= 0.70
     Davidson diagonalization with overlap
     ethr =  3.48E-07,  avg # of iterations =  1.0

     negative rho (up, down):  3.085E+00 0.000E+00

     total cpu time spent up to now is     1249.7 secs

     WARNING: integrated charge=  1232.20659155, expected=  1232.00000000

     total energy              =  -11427.09378464 Ry
     Harris-Foulkes estimate   =  -11427.09558116 Ry
     estimated scf accuracy    <       0.01538318 Ry

     iteration # 54     ecut=    25.00 Ry     beta= 0.70
     Davidson diagonalization with overlap
     ethr =  3.48E-07,  avg # of iterations =  4.0

     negative rho (up, down):  3.085E+00 0.000E+00

     total cpu time spent up to now is     1270.6 secs

     WARNING: integrated charge=  1232.19382807, expected=  1232.00000000

     total energy              =  -11427.09371435 Ry
     Harris-Foulkes estimate   =  -11427.09689950 Ry
     estimated scf accuracy    <       0.02233967 Ry

     iteration # 55     ecut=    25.00 Ry     beta= 0.70
     Davidson diagonalization with overlap
     ethr =  3.48E-07,  avg # of iterations =  3.0

     negative rho (up, down):  3.085E+00 0.000E+00

     total cpu time spent up to now is     1291.8 secs

     WARNING: integrated charge=  1232.21887345, expected=  1232.00000000

     total energy              =  -11427.09401959 Ry
     Harris-Foulkes estimate   =  -11427.09578864 Ry
     estimated scf accuracy    <       0.04225311 Ry

     iteration # 56     ecut=    25.00 Ry     beta= 0.70
     Davidson diagonalization with overlap
     ethr =  3.48E-07,  avg # of iterations =  2.5

     negative rho (up, down):  3.085E+00 0.000E+00

     total cpu time spent up to now is     1310.9 secs

     WARNING: integrated charge=  1232.21107645, expected=  1232.00000000

     total energy              =  -11427.09418408 Ry
     Harris-Foulkes estimate   =  -11427.09679006 Ry
     estimated scf accuracy    <       0.02023491 Ry

     iteration # 57     ecut=    25.00 Ry     beta= 0.70
     Davidson diagonalization with overlap
     ethr =  3.48E-07,  avg # of iterations =  2.0

     negative rho (up, down):  3.085E+00 0.000E+00

     total cpu time spent up to now is     1330.6 secs

     WARNING: integrated charge=  1232.19551671, expected=  1232.00000000

     total energy              =  -11427.09433117 Ry
     Harris-Foulkes estimate   =  -11427.09607348 Ry
     estimated scf accuracy    <       0.02090802 Ry

     iteration # 58     ecut=    25.00 Ry     beta= 0.70
     Davidson diagonalization with overlap
     ethr =  3.48E-07,  avg # of iterations =  2.5

     negative rho (up, down):  3.085E+00 0.000E+00

     total cpu time spent up to now is     1349.5 secs

     WARNING: integrated charge=  1232.18794004, expected=  1232.00000000

     total energy              =  -11427.09430122 Ry
     Harris-Foulkes estimate   =  -11427.09588403 Ry
     estimated scf accuracy    <       0.02338525 Ry

     iteration # 59     ecut=    25.00 Ry     beta= 0.70
     Davidson diagonalization with overlap
     ethr =  3.48E-07,  avg # of iterations =  1.0

     negative rho (up, down):  3.085E+00 0.000E+00

     total cpu time spent up to now is     1366.8 secs

     WARNING: integrated charge=  1232.19246344, expected=  1232.00000000

     total energy              =  -11427.09454556 Ry
     Harris-Foulkes estimate   =  -11427.09532221 Ry
     estimated scf accuracy    <       0.00945509 Ry

     iteration # 60     ecut=    25.00 Ry     beta= 0.70
     Davidson diagonalization with overlap
     ethr =  3.48E-07,  avg # of iterations =  2.0

     negative rho (up, down):  3.085E+00 0.000E+00

     total cpu time spent up to now is     1385.1 secs

     WARNING: integrated charge=  1232.18772509, expected=  1232.00000000

     total energy              =  -11427.09405432 Ry
     Harris-Foulkes estimate   =  -11427.09562648 Ry
     estimated scf accuracy    <       0.02265093 Ry

     iteration # 61     ecut=    25.00 Ry     beta= 0.70
     Davidson diagonalization with overlap
     ethr =  3.48E-07,  avg # of iterations =  2.0

     negative rho (up, down):  3.085E+00 0.000E+00

     total cpu time spent up to now is     1403.9 secs

     WARNING: integrated charge=  1232.19134154, expected=  1232.00000000

     total energy              =  -11427.09370722 Ry
     Harris-Foulkes estimate   =  -11427.09638846 Ry
     estimated scf accuracy    <       0.02002994 Ry

     iteration # 62     ecut=    25.00 Ry     beta= 0.70
     Davidson diagonalization with overlap
     ethr =  3.48E-07,  avg # of iterations =  2.0

     negative rho (up, down):  3.085E+00 0.000E+00

     total cpu time spent up to now is     1424.4 secs

     WARNING: integrated charge=  1232.19082959, expected=  1232.00000000

     total energy              =  -11427.09370970 Ry
     Harris-Foulkes estimate   =  -11427.09614793 Ry
     estimated scf accuracy    <       0.02157827 Ry

     iteration # 63     ecut=    25.00 Ry     beta= 0.70
     Davidson diagonalization with overlap
     ethr =  3.48E-07,  avg # of iterations =  2.0

     negative rho (up, down):  3.084E+00 0.000E+00

     total cpu time spent up to now is     1446.5 secs

     WARNING: integrated charge=  1232.19301033, expected=  1232.00000000

     total energy              =  -11427.09463610 Ry
     Harris-Foulkes estimate   =  -11427.09529791 Ry
     estimated scf accuracy    <       0.00749769 Ry

     iteration # 64     ecut=    25.00 Ry     beta= 0.70
     Davidson diagonalization with overlap
     ethr =  3.48E-07,  avg # of iterations =  3.0

     negative rho (up, down):  3.084E+00 0.000E+00

     total cpu time spent up to now is     1471.5 secs

     WARNING: integrated charge=  1232.17674873, expected=  1232.00000000

     total energy              =  -11427.09445410 Ry
     Harris-Foulkes estimate   =  -11427.09559723 Ry
     estimated scf accuracy    <       0.00764776 Ry

     iteration # 65     ecut=    25.00 Ry     beta= 0.70
     Davidson diagonalization with overlap
     ethr =  3.48E-07,  avg # of iterations =  2.5

     negative rho (up, down):  3.084E+00 0.000E+00

     total cpu time spent up to now is     1490.7 secs

     WARNING: integrated charge=  1232.17971582, expected=  1232.00000000

     total energy              =  -11427.09359849 Ry
     Harris-Foulkes estimate   =  -11427.09613801 Ry
     estimated scf accuracy    <       0.01927288 Ry

     iteration # 66     ecut=    25.00 Ry     beta= 0.70
     Davidson diagonalization with overlap
     ethr =  3.48E-07,  avg # of iterations =  2.0

     negative rho (up, down):  3.084E+00 0.000E+00

     total cpu time spent up to now is     1509.2 secs

     WARNING: integrated charge=  1232.18583371, expected=  1232.00000000

     total energy              =  -11427.09450857 Ry
     Harris-Foulkes estimate   =  -11427.09548142 Ry
     estimated scf accuracy    <       0.01265334 Ry

     iteration # 67     ecut=    25.00 Ry     beta= 0.70
     Davidson diagonalization with overlap
     ethr =  3.48E-07,  avg # of iterations =  1.0

     negative rho (up, down):  3.084E+00 0.000E+00

     total cpu time spent up to now is     1526.4 secs

     WARNING: integrated charge=  1232.19048398, expected=  1232.00000000

     total energy              =  -11427.09487729 Ry
     Harris-Foulkes estimate   =  -11427.09524586 Ry
     estimated scf accuracy    <       0.00296496 Ry

     iteration # 68     ecut=    25.00 Ry     beta= 0.70
     Davidson diagonalization with overlap
     ethr =  2.41E-07,  avg # of iterations =  1.0

     negative rho (up, down):  3.084E+00 0.000E+00

     total cpu time spent up to now is     1543.6 secs

     WARNING: integrated charge=  1232.16613407, expected=  1232.00000000

     total energy              =  -11427.09456199 Ry
     Harris-Foulkes estimate   =  -11427.09534157 Ry
     estimated scf accuracy    <       0.00724022 Ry

     iteration # 69     ecut=    25.00 Ry     beta= 0.70
     Davidson diagonalization with overlap
     ethr =  2.41E-07,  avg # of iterations =  2.0

     negative rho (up, down):  3.084E+00 0.000E+00

     total cpu time spent up to now is     1562.4 secs

     WARNING: integrated charge=  1232.17323160, expected=  1232.00000000

     total energy              =  -11427.09423925 Ry
     Harris-Foulkes estimate   =  -11427.09538131 Ry
     estimated scf accuracy    <       0.00591759 Ry

     iteration # 70     ecut=    25.00 Ry     beta= 0.70
     Davidson diagonalization with overlap
     ethr =  2.41E-07,  avg # of iterations =  2.0

     negative rho (up, down):  3.084E+00 0.000E+00

     total cpu time spent up to now is     1580.8 secs

     WARNING: integrated charge=  1232.17080075, expected=  1232.00000000

     total energy              =  -11427.09474618 Ry
     Harris-Foulkes estimate   =  -11427.09500176 Ry
     estimated scf accuracy    <       0.02248431 Ry

     iteration # 71     ecut=    25.00 Ry     beta= 0.70
     Davidson diagonalization with overlap
     ethr =  2.41E-07,  avg # of iterations =  1.0

     negative rho (up, down):  3.084E+00 0.000E+00

     total cpu time spent up to now is     1598.1 secs

     WARNING: integrated charge=  1232.16874496, expected=  1232.00000000

     total energy              =  -11427.09449653 Ry
     Harris-Foulkes estimate   =  -11427.09500495 Ry
     estimated scf accuracy    <       0.00386729 Ry

     iteration # 72     ecut=    25.00 Ry     beta= 0.70
     Davidson diagonalization with overlap
     ethr =  2.41E-07,  avg # of iterations =  2.0

     negative rho (up, down):  3.085E+00 0.000E+00

     total cpu time spent up to now is     1616.6 secs

     WARNING: integrated charge=  1232.16150650, expected=  1232.00000000

     total energy              =  -11427.09387907 Ry
     Harris-Foulkes estimate   =  -11427.09586280 Ry
     estimated scf accuracy    <       0.02692670 Ry

     iteration # 73     ecut=    25.00 Ry     beta= 0.70
     Davidson diagonalization with overlap
     ethr =  2.41E-07,  avg # of iterations =  2.0

     negative rho (up, down):  3.085E+00 0.000E+00

     total cpu time spent up to now is     1635.0 secs

     WARNING: integrated charge=  1232.16596310, expected=  1232.00000000

     total energy              =  -11427.09434886 Ry
     Harris-Foulkes estimate   =  -11427.09503429 Ry
     estimated scf accuracy    <       0.01101481 Ry

     iteration # 74     ecut=    25.00 Ry     beta= 0.70
     Davidson diagonalization with overlap
     ethr =  2.41E-07,  avg # of iterations =  1.0

     negative rho (up, down):  3.085E+00 0.000E+00

     total cpu time spent up to now is     1652.2 secs

     WARNING: integrated charge=  1232.17625431, expected=  1232.00000000

     total energy              =  -11427.09425298 Ry
     Harris-Foulkes estimate   =  -11427.09523470 Ry
     estimated scf accuracy    <       0.01137670 Ry

     iteration # 75     ecut=    25.00 Ry     beta= 0.70
     Davidson diagonalization with overlap
     ethr =  2.41E-07,  avg # of iterations =  2.0

     negative rho (up, down):  3.085E+00 0.000E+00

     total cpu time spent up to now is     1670.6 secs

     WARNING: integrated charge=  1232.17569071, expected=  1232.00000000

     total energy              =  -11427.09452988 Ry
     Harris-Foulkes estimate   =  -11427.09544374 Ry
     estimated scf accuracy    <       0.01480227 Ry

     iteration # 76     ecut=    25.00 Ry     beta= 0.70
     Davidson diagonalization with overlap
     ethr =  2.41E-07,  avg # of iterations =  1.0

     negative rho (up, down):  3.085E+00 0.000E+00

     total cpu time spent up to now is     1687.8 secs

     WARNING: integrated charge=  1232.17207784, expected=  1232.00000000

     total energy              =  -11427.09442473 Ry
     Harris-Foulkes estimate   =  -11427.09541803 Ry
     estimated scf accuracy    <       0.01120302 Ry

     iteration # 77     ecut=    25.00 Ry     beta= 0.70
     Davidson diagonalization with overlap
     ethr =  2.41E-07,  avg # of iterations =  2.0

     negative rho (up, down):  3.085E+00 0.000E+00

     total cpu time spent up to now is     1706.7 secs

     WARNING: integrated charge=  1232.16371925, expected=  1232.00000000

     total energy              =  -11427.09412788 Ry
     Harris-Foulkes estimate   =  -11427.09557716 Ry
     estimated scf accuracy    <       0.00978626 Ry

     iteration # 78     ecut=    25.00 Ry     beta= 0.70
     Davidson diagonalization with overlap
     ethr =  2.41E-07,  avg # of iterations =  2.0

     negative rho (up, down):  3.085E+00 0.000E+00

     total cpu time spent up to now is     1725.2 secs

     WARNING: integrated charge=  1232.15691460, expected=  1232.00000000

     total energy              =  -11427.09390387 Ry
     Harris-Foulkes estimate   =  -11427.09552506 Ry
     estimated scf accuracy    <       0.01576750 Ry

     iteration # 79     ecut=    25.00 Ry     beta= 0.70
     Davidson diagonalization with overlap
     ethr =  2.41E-07,  avg # of iterations =  2.0

     negative rho (up, down):  3.085E+00 0.000E+00

     total cpu time spent up to now is     1743.9 secs

     WARNING: integrated charge=  1232.15436469, expected=  1232.00000000

     total energy              =  -11427.09399237 Ry
     Harris-Foulkes estimate   =  -11427.09549893 Ry
     estimated scf accuracy    <       0.01198868 Ry

     iteration # 80     ecut=    25.00 Ry     beta= 0.70
     Davidson diagonalization with overlap
     ethr =  2.41E-07,  avg # of iterations =  2.0

     negative rho (up, down):  3.085E+00 0.000E+00

     total cpu time spent up to now is     1762.3 secs

     WARNING: integrated charge=  1232.14158971, expected=  1232.00000000

     total energy              =  -11427.09429937 Ry
     Harris-Foulkes estimate   =  -11427.09488211 Ry
     estimated scf accuracy    <       0.01569817 Ry

     iteration # 81     ecut=    25.00 Ry     beta= 0.70
     Davidson diagonalization with overlap
     ethr =  2.41E-07,  avg # of iterations =  2.0

     negative rho (up, down):  3.085E+00 0.000E+00

     total cpu time spent up to now is     1780.9 secs

     WARNING: integrated charge=  1232.14513920, expected=  1232.00000000

     total energy              =  -11427.09400484 Ry
     Harris-Foulkes estimate   =  -11427.09545422 Ry
     estimated scf accuracy    <       0.01033158 Ry

     iteration # 82     ecut=    25.00 Ry     beta= 0.70
     Davidson diagonalization with overlap
     ethr =  2.41E-07,  avg # of iterations =  2.0

     negative rho (up, down):  3.085E+00 0.000E+00

     total cpu time spent up to now is     1799.5 secs

     WARNING: integrated charge=  1232.13318728, expected=  1232.00000000

     total energy              =  -11427.09442772 Ry
     Harris-Foulkes estimate   =  -11427.09478586 Ry
     estimated scf accuracy    <       0.00325458 Ry

     iteration # 83     ecut=    25.00 Ry     beta= 0.70
     Davidson diagonalization with overlap
     ethr =  2.41E-07,  avg # of iterations =  2.0

     negative rho (up, down):  3.085E+00 0.000E+00

     total cpu time spent up to now is     1818.0 secs

     WARNING: integrated charge=  1232.12538545, expected=  1232.00000000

     total energy              =  -11427.09356593 Ry
     Harris-Foulkes estimate   =  -11427.09483188 Ry
     estimated scf accuracy    <       0.00723352 Ry

     iteration # 84     ecut=    25.00 Ry     beta= 0.70
     Davidson diagonalization with overlap
     ethr =  2.41E-07,  avg # of iterations =  5.0

     negative rho (up, down):  3.085E+00 0.000E+00

     total cpu time spent up to now is     1846.5 secs

     WARNING: integrated charge=  1232.13286686, expected=  1232.00000000

     total energy              =  -11427.09268869 Ry
     Harris-Foulkes estimate   =  -11427.09573817 Ry
     estimated scf accuracy    <       0.01817135 Ry

     iteration # 85     ecut=    25.00 Ry     beta= 0.70
     Davidson diagonalization with overlap
     ethr =  2.41E-07,  avg # of iterations =  2.0

     negative rho (up, down):  3.085E+00 0.000E+00

     total cpu time spent up to now is     1867.6 secs

     WARNING: integrated charge=  1232.13074207, expected=  1232.00000000

     total energy              =  -11427.09333483 Ry
     Harris-Foulkes estimate   =  -11427.09554545 Ry
     estimated scf accuracy    <       0.01982492 Ry

     iteration # 86     ecut=    25.00 Ry     beta= 0.70
     Davidson diagonalization with overlap
     ethr =  2.41E-07,  avg # of iterations =  2.0

     negative rho (up, down):  3.085E+00 0.000E+00

     total cpu time spent up to now is     1887.0 secs

     WARNING: integrated charge=  1232.12881351, expected=  1232.00000000

     total energy              =  -11427.09412388 Ry
     Harris-Foulkes estimate   =  -11427.09486933 Ry
     estimated scf accuracy    <       0.02024636 Ry

     iteration # 87     ecut=    25.00 Ry     beta= 0.70
     Davidson diagonalization with overlap
     ethr =  2.41E-07,  avg # of iterations =  1.0

     negative rho (up, down):  3.085E+00 0.000E+00

     total cpu time spent up to now is     1904.3 secs

     WARNING: integrated charge=  1232.12547450, expected=  1232.00000000

     total energy              =  -11427.09429248 Ry
     Harris-Foulkes estimate   =  -11427.09483698 Ry
     estimated scf accuracy    <       0.01018337 Ry

     iteration # 88     ecut=    25.00 Ry     beta= 0.70
     Davidson diagonalization with overlap
     ethr =  2.41E-07,  avg # of iterations =  1.0

     negative rho (up, down):  3.085E+00 0.000E+00

     total cpu time spent up to now is     1921.6 secs

     WARNING: integrated charge=  1232.12103987, expected=  1232.00000000

     total energy              =  -11427.09405703 Ry
     Harris-Foulkes estimate   =  -11427.09464942 Ry
     estimated scf accuracy    <       0.00521696 Ry

     iteration # 89     ecut=    25.00 Ry     beta= 0.70
     Davidson diagonalization with overlap
     ethr =  2.41E-07,  avg # of iterations =  2.0

     negative rho (up, down):  3.085E+00 0.000E+00

     total cpu time spent up to now is     1941.0 secs

     WARNING: integrated charge=  1232.11698437, expected=  1232.00000000

     total energy              =  -11427.09374055 Ry
     Harris-Foulkes estimate   =  -11427.09521169 Ry
     estimated scf accuracy    <       0.02276562 Ry

     iteration # 90     ecut=    25.00 Ry     beta= 0.70
     Davidson diagonalization with overlap
     ethr =  2.41E-07,  avg # of iterations =  1.5

     negative rho (up, down):  3.085E+00 0.000E+00

     total cpu time spent up to now is     1958.8 secs

     WARNING: integrated charge=  1232.12741963, expected=  1232.00000000

     total energy              =  -11427.09400764 Ry
     Harris-Foulkes estimate   =  -11427.09489606 Ry
     estimated scf accuracy    <       0.00593151 Ry

     iteration # 91     ecut=    25.00 Ry     beta= 0.70
     Davidson diagonalization with overlap
     ethr =  2.41E-07,  avg # of iterations =  1.0

     negative rho (up, down):  3.085E+00 0.000E+00

     total cpu time spent up to now is     1976.0 secs

     WARNING: integrated charge=  1232.13389102, expected=  1232.00000000

     total energy              =  -11427.09416342 Ry
     Harris-Foulkes estimate   =  -11427.09481304 Ry
     estimated scf accuracy    <       0.00763564 Ry

     iteration # 92     ecut=    25.00 Ry     beta= 0.70
     Davidson diagonalization with overlap
     ethr =  2.41E-07,  avg # of iterations =  1.0

     negative rho (up, down):  3.085E+00 0.000E+00

     total cpu time spent up to now is     1993.3 secs

     WARNING: integrated charge=  1232.11479204, expected=  1232.00000000

     total energy              =  -11427.09426011 Ry
     Harris-Foulkes estimate   =  -11427.09487973 Ry
     estimated scf accuracy    <       0.00413164 Ry

     iteration # 93     ecut=    25.00 Ry     beta= 0.70
     Davidson diagonalization with overlap
     ethr =  2.41E-07,  avg # of iterations =  2.0

     negative rho (up, down):  3.085E+00 0.000E+00

     total cpu time spent up to now is     2011.9 secs

     WARNING: integrated charge=  1232.11841721, expected=  1232.00000000

     total energy              =  -11427.09372923 Ry
     Harris-Foulkes estimate   =  -11427.09483467 Ry
     estimated scf accuracy    <       0.00952848 Ry

     iteration # 94     ecut=    25.00 Ry     beta= 0.70
     Davidson diagonalization with overlap
     ethr =  2.41E-07,  avg # of iterations =  2.0

     negative rho (up, down):  3.085E+00 0.000E+00

     total cpu time spent up to now is     2030.6 secs

     WARNING: integrated charge=  1232.10957485, expected=  1232.00000000

     total energy              =  -11427.09366951 Ry
     Harris-Foulkes estimate   =  -11427.09530264 Ry
     estimated scf accuracy    <       0.01053493 Ry

     iteration # 95     ecut=    25.00 Ry     beta= 0.70
     Davidson diagonalization with overlap
     ethr =  2.41E-07,  avg # of iterations =  2.0

     negative rho (up, down):  3.085E+00 0.000E+00

     total cpu time spent up to now is     2049.1 secs

     WARNING: integrated charge=  1232.10470016, expected=  1232.00000000

     total energy              =  -11427.09385640 Ry
     Harris-Foulkes estimate   =  -11427.09496120 Ry
     estimated scf accuracy    <       0.10183079 Ry

     iteration # 96     ecut=    25.00 Ry     beta= 0.70
     Davidson diagonalization with overlap
     ethr =  2.41E-07,  avg # of iterations =  1.0

     negative rho (up, down):  3.085E+00 0.000E+00

     total cpu time spent up to now is     2066.4 secs

     WARNING: integrated charge=  1232.11078749, expected=  1232.00000000

     total energy              =  -11427.09343366 Ry
     Harris-Foulkes estimate   =  -11427.09518159 Ry
     estimated scf accuracy    <       0.01829672 Ry

     iteration # 97     ecut=    25.00 Ry     beta= 0.70
     Davidson diagonalization with overlap
     ethr =  2.41E-07,  avg # of iterations =  2.0

     negative rho (up, down):  3.085E+00 0.000E+00

     total cpu time spent up to now is     2084.9 secs

     WARNING: integrated charge=  1232.11026915, expected=  1232.00000000

     total energy              =  -11427.09404783 Ry
     Harris-Foulkes estimate   =  -11427.09451581 Ry
     estimated scf accuracy    <       0.01429700 Ry

     iteration # 98     ecut=    25.00 Ry     beta= 0.70
     Davidson diagonalization with overlap
     ethr =  2.41E-07,  avg # of iterations =  2.0

     negative rho (up, down):  3.085E+00 0.000E+00

     total cpu time spent up to now is     2103.5 secs

     WARNING: integrated charge=  1232.11795139, expected=  1232.00000000

     total energy              =  -11427.09378981 Ry
     Harris-Foulkes estimate   =  -11427.09482334 Ry
     estimated scf accuracy    <       0.00787964 Ry

     iteration # 99     ecut=    25.00 Ry     beta= 0.70
     Davidson diagonalization with overlap
     ethr =  2.41E-07,  avg # of iterations =  1.0

     negative rho (up, down):  3.085E+00 0.000E+00

     total cpu time spent up to now is     2120.8 secs

     WARNING: integrated charge=  1232.12422618, expected=  1232.00000000

     total energy              =  -11427.09425572 Ry
     Harris-Foulkes estimate   =  -11427.09461472 Ry
     estimated scf accuracy    <       0.00429786 Ry

     iteration #100     ecut=    25.00 Ry     beta= 0.70
     Davidson diagonalization with overlap
     ethr =  2.41E-07,  avg # of iterations =  2.0

     negative rho (up, down):  3.085E+00 0.000E+00

     total cpu time spent up to now is     2139.2 secs

     WARNING: integrated charge=  1232.11773408, expected=  1232.00000000

     total energy              =  -11427.09409003 Ry
     Harris-Foulkes estimate   =  -11427.09487483 Ry
     estimated scf accuracy    <       0.00575789 Ry

     End of self-consistent calculation

     convergence NOT achieved after 100 iterations: stopping

     Writing output data file ./ausurf.save/
 
     init_run     :      9.35s CPU      9.67s WALL (       1 calls)
     electrons    :   2081.80s CPU   2129.77s WALL (       1 calls)

     Called by init_run:
     wfcinit      :      7.67s CPU      7.90s WALL (       1 calls)
     potinit      :      0.21s CPU      0.22s WALL (       1 calls)
     hinit0       :      0.32s CPU      0.33s WALL (       1 calls)

     Called by electrons:
     c_bands      :   1840.14s CPU   1876.97s WALL (     101 calls)
     sum_band     :    216.50s CPU    222.82s WALL (     101 calls)
     v_of_rho     :      7.36s CPU      7.82s WALL (     101 calls)
     newd         :     15.34s CPU     19.07s WALL (     101 calls)
     mix_rho      :      1.72s CPU      1.78s WALL (     101 calls)

     Called by c_bands:
     init_us_2    :      9.14s CPU      9.25s WALL (     406 calls)
     cegterg      :   1806.65s CPU   1842.36s WALL (     202 calls)

     Called by sum_band:
     sum_band:bec :      2.73s CPU      2.75s WALL (     202 calls)
     addusdens    :     13.49s CPU     17.61s WALL (     101 calls)

     Called by *egterg:
     h_psi        :    763.96s CPU    775.76s WALL (     812 calls)
     s_psi        :    168.20s CPU    169.92s WALL (     812 calls)
     g_psi        :      2.52s CPU      2.53s WALL (     608 calls)
     cdiaghg      :    356.91s CPU    369.44s WALL (     808 calls)

     Called by h_psi:
     h_psi:calbec :    200.55s CPU    201.21s WALL (     812 calls)
     vloc_psi     :    388.17s CPU    395.47s WALL (     812 calls)
     add_vuspsi   :    170.57s CPU    172.78s WALL (     812 calls)

     General routines
     calbec       :    293.76s CPU    294.87s WALL (    1014 calls)
     fft          :      5.55s CPU      5.61s WALL (    1314 calls)
     ffts         :      0.30s CPU      0.31s WALL (     202 calls)
     fftw         :    449.86s CPU    458.02s WALL (  844114 calls)
     interpolate  :      0.64s CPU      0.64s WALL (     101 calls)
     davcio       :      0.00s CPU      0.57s WALL (      20 calls)
 
     Parallel routines
     fft_scatt_xy :     43.33s CPU     44.11s WALL (  845630 calls)
     fft_scatt_yz :    267.48s CPU    272.93s WALL (  845630 calls)
 
     PWSCF        :  34m51.67s CPU  35m40.98s WALL

 
   This run was terminated on:  14:47:16  16Jul2020            

=------------------------------------------------------------------------------=
   JOB DONE.
=------------------------------------------------------------------------------=
