
     Program PWSCF v.6.5 starts on 16Jul2020 at 13:23:12 

     This program is part of the open-source Quantum ESPRESSO suite
     for quantum simulation of materials; please cite
         "P. Giannozzi et al., J. Phys.:Condens. Matter 21 395502 (2009);
         "P. Giannozzi et al., J. Phys.:Condens. Matter 29 465901 (2017);
          URL http://www.quantum-espresso.org", 
     in publications or presentations arising from this work. More details at
     http://www.quantum-espresso.org/quote

     Parallel version (MPI & OpenMP), running on     144 processor cores
     Number of MPI processes:               144
     Threads/MPI process:                     1

     MPI processes distributed on     4 nodes
     R & G space division:  proc/nbgrp/npool/nimage =     144
     Reading input from ausurf.in

     Current dimensions of program PWSCF are:
     Max number of different atomic species (ntypx) = 10
     Max number of k-points (npk) =  40000
     Max angular momentum in pseudopotentials (lmaxx) =  3

     Subspace diagonalization in iterative solution of the eigenvalue problem:
     one sub-group per band group will be used
     scalapack distributed-memory algorithm (size of sub-group: 12* 12 procs)

 
     Parallelization info
     --------------------
     sticks:   dense  smooth     PW     G-vecs:    dense   smooth      PW
     Min          82      41     10                14984     5293     690
     Max          83      42     11                14994     5305     709
     Sum       11837    5915   1537              2158381   763307  100747
 

     Title: 
      DEISA pw benchmark                                                        


     bravais-lattice index     =            8
     lattice parameter (alat)  =      38.7583  a.u.
     unit-cell volume          =   45191.4962 (a.u.)^3
     number of atoms/cell      =          112
     number of atomic types    =            1
     number of electrons       =      1232.00
     number of Kohn-Sham states=          800
     kinetic-energy cutoff     =      25.0000  Ry
     charge density cutoff     =     200.0000  Ry
     convergence threshold     =      1.0E-06
     mixing beta               =       0.7000
     number of iterations used =            8  plain     mixing
     Exchange-correlation=  SLA  PW   PBE  PBE
                           (   1   4   3   4   0   0   0)

     celldm(1)=  38.758300  celldm(2)=   0.494393  celldm(3)=   1.569966
     celldm(4)=   0.000000  celldm(5)=   0.000000  celldm(6)=   0.000000

     crystal axes: (cart. coord. in units of alat)
               a(1) = (   1.000000   0.000000   0.000000 )  
               a(2) = (   0.000000   0.494393   0.000000 )  
               a(3) = (   0.000000   0.000000   1.569966 )  

     reciprocal axes: (cart. coord. in units 2 pi/alat)
               b(1) = (  1.000000  0.000000  0.000000 )  
               b(2) = (  0.000000  2.022682  0.000000 )  
               b(3) = (  0.000000  0.000000  0.636956 )  


     PseudoPot. # 1 for Au read from file:
     ./Au.pbe-nd-van.UPF
     MD5 check sum: deb5c07af10777505a79e28f5b4b4115
     Pseudo is Ultrasoft + core correction, Zval = 11.0
     Generated by new atomic code, or converted to UPF format
     Using radial grid of  985 points,  3 beta functions with: 
                l(1) =   1
                l(2) =   2
                l(3) =   2
     Q(r) pseudized with  8 coefficients,  rinner =    1.100   1.100   1.100
                                                       1.100   1.100

     atomic species   valence    mass     pseudopotential
        AU            11.00   196.96000     Au( 1.00)

     No symmetry found



   Cartesian axes

     site n.     atom                  positions (alat units)
         1           AU  tau(   1) = (   1.4278395   1.9784974   0.3497317  )
         2           AU  tau(   2) = (   1.4278395   1.7313987   0.3497317  )
         3           AU  tau(   3) = (   1.5706478   1.9784974   0.3497317  )
         4           AU  tau(   4) = (   1.5706478   1.7313987   0.3497317  )
         5           AU  tau(   5) = (   1.7134072   1.9784974   0.3497317  )
         6           AU  tau(   6) = (   1.7134072   1.7313987   0.3497317  )
         7           AU  tau(   7) = (   1.8562156   1.9784974   0.3497317  )
         8           AU  tau(   8) = (   1.8562156   1.7313987   0.3497317  )
         9           AU  tau(   9) = (   1.9989753   1.9784974   0.3497317  )
        10           AU  tau(  10) = (   1.9989753   1.7313987   0.3497317  )
        11           AU  tau(  11) = (   2.1417836   1.9784974   0.3497317  )
        12           AU  tau(  12) = (   2.1417836   1.7313987   0.3497317  )
        13           AU  tau(  13) = (   2.2845431   1.9784974   0.3497317  )
        14           AU  tau(  14) = (   2.2845431   1.7313987   0.3497317  )
        15           AU  tau(  15) = (   1.4278395   2.0609450   0.2331545  )
        16           AU  tau(  16) = (   1.4278395   1.8138461   0.2331545  )
        17           AU  tau(  17) = (   1.5706478   2.0609450   0.2331545  )
        18           AU  tau(  18) = (   1.5706478   1.8138461   0.2331545  )
        19           AU  tau(  19) = (   1.7134072   2.0609450   0.2331545  )
        20           AU  tau(  20) = (   1.7134072   1.8138461   0.2331545  )
        21           AU  tau(  21) = (   1.8562156   2.0609450   0.2331545  )
        22           AU  tau(  22) = (   1.8562156   1.8138461   0.2331545  )
        23           AU  tau(  23) = (   1.9989753   2.0609450   0.2331545  )
        24           AU  tau(  24) = (   1.9989753   1.8138461   0.2331545  )
        25           AU  tau(  25) = (   2.1417836   2.0609450   0.2331545  )
        26           AU  tau(  26) = (   2.1417836   1.8138461   0.2331545  )
        27           AU  tau(  27) = (   2.2845431   2.0609450   0.2331545  )
        28           AU  tau(  28) = (   2.2845431   1.8138461   0.2331545  )
        29           AU  tau(  29) = (   1.4992193   2.1021445   0.3497317  )
        30           AU  tau(  30) = (   1.4992193   1.8550456   0.3497317  )
        31           AU  tau(  31) = (   1.6420276   2.1021445   0.3497317  )
        32           AU  tau(  32) = (   1.6420276   1.8550456   0.3497317  )
        33           AU  tau(  33) = (   1.7847871   2.1021445   0.3497317  )
        34           AU  tau(  34) = (   1.7847871   1.8550456   0.3497317  )
        35           AU  tau(  35) = (   1.9275954   2.1021445   0.3497317  )
        36           AU  tau(  36) = (   1.9275954   1.8550456   0.3497317  )
        37           AU  tau(  37) = (   2.0704038   2.1021445   0.3497317  )
        38           AU  tau(  38) = (   2.0704038   1.8550456   0.3497317  )
        39           AU  tau(  39) = (   2.2131632   2.1021445   0.3497317  )
        40           AU  tau(  40) = (   2.2131632   1.8550456   0.3497317  )
        41           AU  tau(  41) = (   2.3559716   2.1021445   0.3497317  )
        42           AU  tau(  42) = (   2.3559716   1.8550456   0.3497317  )
        43           AU  tau(  43) = (   1.4992193   1.6901992   0.2331545  )
        44           AU  tau(  44) = (   1.4992193   1.9374930   0.2331545  )
        45           AU  tau(  45) = (   1.6420276   1.6901992   0.2331545  )
        46           AU  tau(  46) = (   1.6420276   1.9374930   0.2331545  )
        47           AU  tau(  47) = (   1.7847871   1.6901992   0.2331545  )
        48           AU  tau(  48) = (   1.7847871   1.9374930   0.2331545  )
        49           AU  tau(  49) = (   1.9275954   1.6901992   0.2331545  )
        50           AU  tau(  50) = (   1.9275954   1.9374930   0.2331545  )
        51           AU  tau(  51) = (   2.0704038   1.6901992   0.2331545  )
        52           AU  tau(  52) = (   2.0704038   1.9374930   0.2331545  )
        53           AU  tau(  53) = (   2.2131632   1.6901992   0.2331545  )
        54           AU  tau(  54) = (   2.2131632   1.9374930   0.2331545  )
        55           AU  tau(  55) = (   2.3559716   1.6901992   0.2331545  )
        56           AU  tau(  56) = (   2.3559716   1.9374930   0.2331545  )
        57           AU  tau(  57) = (   1.4278395   1.9784974   0.0000000  )
        58           AU  tau(  58) = (   1.4278395   1.7313987   0.0000000  )
        59           AU  tau(  59) = (   1.5706478   1.9784974   0.0000000  )
        60           AU  tau(  60) = (   1.5706478   1.7313987   0.0000000  )
        61           AU  tau(  61) = (   1.7134072   1.9784974   0.0000000  )
        62           AU  tau(  62) = (   1.7134072   1.7313987   0.0000000  )
        63           AU  tau(  63) = (   1.8562156   1.9784974   0.0000000  )
        64           AU  tau(  64) = (   1.8562156   1.7313987   0.0000000  )
        65           AU  tau(  65) = (   1.9989753   1.9784974   0.0000000  )
        66           AU  tau(  66) = (   1.9989753   1.7313987   0.0000000  )
        67           AU  tau(  67) = (   2.1417836   1.9784974   0.0000000  )
        68           AU  tau(  68) = (   2.1417836   1.7313987   0.0000000  )
        69           AU  tau(  69) = (   2.2845431   1.9784974   0.0000000  )
        70           AU  tau(  70) = (   2.2845431   1.7313987   0.0000000  )
        71           AU  tau(  71) = (   1.4992193   2.0196968   0.1165772  )
        72           AU  tau(  72) = (   1.4992193   1.7725979   0.1165772  )
        73           AU  tau(  73) = (   1.6420276   2.0196968   0.1165772  )
        74           AU  tau(  74) = (   1.6420276   1.7725979   0.1165772  )
        75           AU  tau(  75) = (   1.7847871   2.0196968   0.1165772  )
        76           AU  tau(  76) = (   1.7847871   1.7725979   0.1165772  )
        77           AU  tau(  77) = (   1.9275954   2.0196968   0.1165772  )
        78           AU  tau(  78) = (   1.9275954   1.7725979   0.1165772  )
        79           AU  tau(  79) = (   2.0704038   2.0196968   0.1165772  )
        80           AU  tau(  80) = (   2.0704038   1.7725979   0.1165772  )
        81           AU  tau(  81) = (   2.2131632   2.0196968   0.1165772  )
        82           AU  tau(  82) = (   2.2131632   1.7725979   0.1165772  )
        83           AU  tau(  83) = (   2.3559716   2.0196968   0.1165772  )
        84           AU  tau(  84) = (   2.3559716   1.7725979   0.1165772  )
        85           AU  tau(  85) = (   1.4278395   2.1433437   0.1165772  )
        86           AU  tau(  86) = (   1.4278395   1.8962938   0.1165772  )
        87           AU  tau(  87) = (   1.5706478   2.1433437   0.1165772  )
        88           AU  tau(  88) = (   1.5706478   1.8962938   0.1165772  )
        89           AU  tau(  89) = (   1.7134072   2.1433437   0.1165772  )
        90           AU  tau(  90) = (   1.7134072   1.8962938   0.1165772  )
        91           AU  tau(  91) = (   1.8562156   2.1433437   0.1165772  )
        92           AU  tau(  92) = (   1.8562156   1.8962938   0.1165772  )
        93           AU  tau(  93) = (   1.9989753   2.1433437   0.1165772  )
        94           AU  tau(  94) = (   1.9989753   1.8962938   0.1165772  )
        95           AU  tau(  95) = (   2.1417836   2.1433437   0.1165772  )
        96           AU  tau(  96) = (   2.1417836   1.8962938   0.1165772  )
        97           AU  tau(  97) = (   2.2845431   2.1433437   0.1165772  )
        98           AU  tau(  98) = (   2.2845431   1.8962938   0.1165772  )
        99           AU  tau(  99) = (   1.4992193   2.1021445   0.0000000  )
       100           AU  tau( 100) = (   1.4992193   1.8550456   0.0000000  )
       101           AU  tau( 101) = (   1.6420276   2.1021445   0.0000000  )
       102           AU  tau( 102) = (   1.6420276   1.8550456   0.0000000  )
       103           AU  tau( 103) = (   1.7847871   2.1021445   0.0000000  )
       104           AU  tau( 104) = (   1.7847871   1.8550456   0.0000000  )
       105           AU  tau( 105) = (   1.9275954   2.1021445   0.0000000  )
       106           AU  tau( 106) = (   1.9275954   1.8550456   0.0000000  )
       107           AU  tau( 107) = (   2.0704038   2.1021445   0.0000000  )
       108           AU  tau( 108) = (   2.0704038   1.8550456   0.0000000  )
       109           AU  tau( 109) = (   2.2131632   2.1021445   0.0000000  )
       110           AU  tau( 110) = (   2.2131632   1.8550456   0.0000000  )
       111           AU  tau( 111) = (   2.3559716   2.1021445   0.0000000  )
       112           AU  tau( 112) = (   2.3559716   1.8550456   0.0000000  )

     number of k points=     2  Marzari-Vanderbilt smearing, width (Ry)=  0.0500
                       cart. coord. in units 2pi/alat
        k(    1) = (   0.2500000   0.5056706   0.0000000), wk =   1.0000000
        k(    2) = (  -0.2500000   0.5056706   0.0000000), wk =   1.0000000

     Dense  grid:  2158381 G-vectors     FFT dimensions: ( 180,  90, 288)

     Smooth grid:   763307 G-vectors     FFT dimensions: ( 125,  64, 200)

     Estimated max dynamical RAM per process >     167.32 MB

     Estimated total dynamical RAM >      23.53 GB

     Initial potential from superposition of free atoms

     starting charge 1230.69946, renormalised to 1232.00000

     negative rho (up, down):  3.043E+00 0.000E+00
     Starting wfcs are 1008 randomized atomic wfcs

     total cpu time spent up to now is       11.2 secs

     Self-consistent Calculation

     iteration #  1     ecut=    25.00 Ry     beta= 0.70
     Davidson diagonalization with overlap
     ethr =  1.00E-02,  avg # of iterations =  6.0

     Threshold (ethr) on eigenvalues was too large:
     Diagonalizing with lowered threshold

     Davidson diagonalization with overlap
     c_bands:  2 eigenvalues not converged
     ethr =  4.54E-04,  avg # of iterations = 12.0

     negative rho (up, down):  2.992E+00 0.000E+00

     total cpu time spent up to now is       72.5 secs

     WARNING: integrated charge=  1232.02280217, expected=  1232.00000000

     total energy              =  -11423.46713855 Ry
     Harris-Foulkes estimate   =  -11428.45079170 Ry
     estimated scf accuracy    <       6.35619063 Ry

     iteration #  2     ecut=    25.00 Ry     beta= 0.70
     Davidson diagonalization with overlap
     ethr =  5.16E-04,  avg # of iterations = 12.0

     negative rho (up, down):  2.992E+00 0.000E+00

     total cpu time spent up to now is      126.8 secs

     WARNING: integrated charge=  1232.02082415, expected=  1232.00000000

     total energy              =  -11408.00980860 Ry
     Harris-Foulkes estimate   =  -11440.37905229 Ry
     estimated scf accuracy    <     199.72674078 Ry

     iteration #  3     ecut=    25.00 Ry     beta= 0.70
     Davidson diagonalization with overlap
     ethr =  5.16E-04,  avg # of iterations =  6.0

     negative rho (up, down):  3.037E+00 0.000E+00

     total cpu time spent up to now is      166.2 secs

     WARNING: integrated charge=  1232.01332884, expected=  1232.00000000

     total energy              =  -11426.31872007 Ry
     Harris-Foulkes estimate   =  -11427.99781231 Ry
     estimated scf accuracy    <       5.54033757 Ry

     iteration #  4     ecut=    25.00 Ry     beta= 0.70
     Davidson diagonalization with overlap
     ethr =  4.50E-04,  avg # of iterations =  5.0

     negative rho (up, down):  3.044E+00 0.000E+00

     total cpu time spent up to now is      187.4 secs

     WARNING: integrated charge=  1232.01783009, expected=  1232.00000000

     total energy              =  -11426.32731694 Ry
     Harris-Foulkes estimate   =  -11427.70054557 Ry
     estimated scf accuracy    <      10.71116402 Ry

     iteration #  5     ecut=    25.00 Ry     beta= 0.70
     Davidson diagonalization with overlap
     ethr =  4.50E-04,  avg # of iterations =  4.0

     negative rho (up, down):  3.060E+00 0.000E+00

     total cpu time spent up to now is      206.9 secs

     WARNING: integrated charge=  1232.01909708, expected=  1232.00000000

     total energy              =  -11426.95178230 Ry
     Harris-Foulkes estimate   =  -11427.25592350 Ry
     estimated scf accuracy    <       2.44713898 Ry

     iteration #  6     ecut=    25.00 Ry     beta= 0.70
     Davidson diagonalization with overlap
     ethr =  1.99E-04,  avg # of iterations =  3.0

     negative rho (up, down):  3.064E+00 0.000E+00

     total cpu time spent up to now is      224.4 secs

     WARNING: integrated charge=  1232.01488335, expected=  1232.00000000

     total energy              =  -11427.06895826 Ry
     Harris-Foulkes estimate   =  -11427.10322625 Ry
     estimated scf accuracy    <       0.15696143 Ry

     iteration #  7     ecut=    25.00 Ry     beta= 0.70
     Davidson diagonalization with overlap
     ethr =  1.27E-05,  avg # of iterations = 19.5

     negative rho (up, down):  3.075E+00 0.000E+00

     total cpu time spent up to now is      272.5 secs

     WARNING: integrated charge=  1232.09450171, expected=  1232.00000000

     total energy              =  -11427.02984972 Ry
     Harris-Foulkes estimate   =  -11427.15618152 Ry
     estimated scf accuracy    <       1.49280858 Ry

     iteration #  8     ecut=    25.00 Ry     beta= 0.70
     Davidson diagonalization with overlap
     ethr =  1.27E-05,  avg # of iterations = 11.0

     negative rho (up, down):  3.080E+00 0.000E+00

     total cpu time spent up to now is      303.1 secs

     WARNING: integrated charge=  1232.09204062, expected=  1232.00000000

     total energy              =  -11427.08314765 Ry
     Harris-Foulkes estimate   =  -11427.10411602 Ry
     estimated scf accuracy    <       0.08373427 Ry

     iteration #  9     ecut=    25.00 Ry     beta= 0.70
     Davidson diagonalization with overlap
     ethr =  6.80E-06,  avg # of iterations =  4.0

     negative rho (up, down):  3.081E+00 0.000E+00

     total cpu time spent up to now is      322.6 secs

     WARNING: integrated charge=  1232.12525752, expected=  1232.00000000

     total energy              =  -11427.09287486 Ry
     Harris-Foulkes estimate   =  -11427.09550781 Ry
     estimated scf accuracy    <       0.01945627 Ry

     iteration # 10     ecut=    25.00 Ry     beta= 0.70
     Davidson diagonalization with overlap
     ethr =  1.58E-06,  avg # of iterations =  7.0

     negative rho (up, down):  3.079E+00 0.000E+00

     total cpu time spent up to now is      345.6 secs

     WARNING: integrated charge=  1232.20766155, expected=  1232.00000000

     total energy              =  -11427.09319221 Ry
     Harris-Foulkes estimate   =  -11427.09539971 Ry
     estimated scf accuracy    <       0.01082610 Ry

     iteration # 11     ecut=    25.00 Ry     beta= 0.70
     Davidson diagonalization with overlap
     c_bands:  2 eigenvalues not converged
     ethr =  8.79E-07,  avg # of iterations = 18.0

     negative rho (up, down):  3.083E+00 0.000E+00

     total cpu time spent up to now is      382.2 secs

     WARNING: integrated charge=  1232.25571065, expected=  1232.00000000

     total energy              =  -11427.09221629 Ry
     Harris-Foulkes estimate   =  -11427.09665877 Ry
     estimated scf accuracy    <       0.02416686 Ry

     iteration # 12     ecut=    25.00 Ry     beta= 0.70
     Davidson diagonalization with overlap
     c_bands:  1 eigenvalues not converged
     ethr =  8.79E-07,  avg # of iterations = 19.0

     negative rho (up, down):  3.083E+00 0.000E+00

     total cpu time spent up to now is      422.0 secs

     WARNING: integrated charge=  1232.19619427, expected=  1232.00000000

     total energy              =  -11427.09125453 Ry
     Harris-Foulkes estimate   =  -11427.09853309 Ry
     estimated scf accuracy    <       0.05075854 Ry

     iteration # 13     ecut=    25.00 Ry     beta= 0.70
     Davidson diagonalization with overlap
     ethr =  8.79E-07,  avg # of iterations =  7.0

     negative rho (up, down):  3.083E+00 0.000E+00

     total cpu time spent up to now is      446.0 secs

     WARNING: integrated charge=  1232.16295671, expected=  1232.00000000

     total energy              =  -11427.09381967 Ry
     Harris-Foulkes estimate   =  -11427.09566730 Ry
     estimated scf accuracy    <       0.01011805 Ry

     iteration # 14     ecut=    25.00 Ry     beta= 0.70
     Davidson diagonalization with overlap
     ethr =  8.21E-07,  avg # of iterations =  5.0

     negative rho (up, down):  3.083E+00 0.000E+00

     total cpu time spent up to now is      465.9 secs

     WARNING: integrated charge=  1232.17128305, expected=  1232.00000000

     total energy              =  -11427.09371852 Ry
     Harris-Foulkes estimate   =  -11427.09512919 Ry
     estimated scf accuracy    <       0.01076852 Ry

     iteration # 15     ecut=    25.00 Ry     beta= 0.70
     Davidson diagonalization with overlap
     ethr =  8.21E-07,  avg # of iterations =  2.0

     negative rho (up, down):  3.084E+00 0.000E+00

     total cpu time spent up to now is      482.2 secs

     WARNING: integrated charge=  1232.16327982, expected=  1232.00000000

     total energy              =  -11427.09405397 Ry
     Harris-Foulkes estimate   =  -11427.09530483 Ry
     estimated scf accuracy    <       0.01178746 Ry

     iteration # 16     ecut=    25.00 Ry     beta= 0.70
     Davidson diagonalization with overlap
     ethr =  8.21E-07,  avg # of iterations =  1.0

     negative rho (up, down):  3.084E+00 0.000E+00

     total cpu time spent up to now is      497.1 secs

     WARNING: integrated charge=  1232.13910193, expected=  1232.00000000

     total energy              =  -11427.09436133 Ry
     Harris-Foulkes estimate   =  -11427.09493330 Ry
     estimated scf accuracy    <       0.00361581 Ry

     iteration # 17     ecut=    25.00 Ry     beta= 0.70
     Davidson diagonalization with overlap
     ethr =  2.93E-07,  avg # of iterations =  2.0

     negative rho (up, down):  3.084E+00 0.000E+00

     total cpu time spent up to now is      513.5 secs

     WARNING: integrated charge=  1232.14011483, expected=  1232.00000000

     total energy              =  -11427.09420078 Ry
     Harris-Foulkes estimate   =  -11427.09499493 Ry
     estimated scf accuracy    <       0.00822468 Ry

     iteration # 18     ecut=    25.00 Ry     beta= 0.70
     Davidson diagonalization with overlap
     ethr =  2.93E-07,  avg # of iterations =  1.0

     negative rho (up, down):  3.084E+00 0.000E+00

     total cpu time spent up to now is      528.5 secs

     WARNING: integrated charge=  1232.12782884, expected=  1232.00000000

     total energy              =  -11427.09435576 Ry
     Harris-Foulkes estimate   =  -11427.09469992 Ry
     estimated scf accuracy    <       0.00216921 Ry

     iteration # 19     ecut=    25.00 Ry     beta= 0.70
     Davidson diagonalization with overlap
     ethr =  1.76E-07,  avg # of iterations =  5.0

     negative rho (up, down):  3.084E+00 0.000E+00

     total cpu time spent up to now is      548.2 secs

     WARNING: integrated charge=  1232.08318113, expected=  1232.00000000

     total energy              =  -11427.09370663 Ry
     Harris-Foulkes estimate   =  -11427.09485174 Ry
     estimated scf accuracy    <       0.00599063 Ry

     iteration # 20     ecut=    25.00 Ry     beta= 0.70
     Davidson diagonalization with overlap
     ethr =  1.76E-07,  avg # of iterations =  6.0

     negative rho (up, down):  3.085E+00 0.000E+00

     total cpu time spent up to now is      570.8 secs

     WARNING: integrated charge=  1232.05829296, expected=  1232.00000000

     total energy              =  -11427.09359651 Ry
     Harris-Foulkes estimate   =  -11427.09472039 Ry
     estimated scf accuracy    <       0.00891738 Ry

     iteration # 21     ecut=    25.00 Ry     beta= 0.70
     Davidson diagonalization with overlap
     ethr =  1.76E-07,  avg # of iterations =  2.0

     negative rho (up, down):  3.084E+00 0.000E+00

     total cpu time spent up to now is      587.5 secs

     WARNING: integrated charge=  1232.06550911, expected=  1232.00000000

     total energy              =  -11427.09347011 Ry
     Harris-Foulkes estimate   =  -11427.09453509 Ry
     estimated scf accuracy    <       0.00620998 Ry

     iteration # 22     ecut=    25.00 Ry     beta= 0.70
     Davidson diagonalization with overlap
     ethr =  1.76E-07,  avg # of iterations =  2.0

     negative rho (up, down):  3.084E+00 0.000E+00

     total cpu time spent up to now is      604.8 secs

     WARNING: integrated charge=  1232.05162143, expected=  1232.00000000

     total energy              =  -11427.09356789 Ry
     Harris-Foulkes estimate   =  -11427.09459462 Ry
     estimated scf accuracy    <       0.00836699 Ry

     iteration # 23     ecut=    25.00 Ry     beta= 0.70
     Davidson diagonalization with overlap
     ethr =  1.76E-07,  avg # of iterations =  2.0

     negative rho (up, down):  3.085E+00 0.000E+00

     total cpu time spent up to now is      621.7 secs

     WARNING: integrated charge=  1232.00547651, expected=  1232.00000000

     total energy              =  -11427.09358556 Ry
     Harris-Foulkes estimate   =  -11427.09430335 Ry
     estimated scf accuracy    <       0.00295856 Ry

     iteration # 24     ecut=    25.00 Ry     beta= 0.70
     Davidson diagonalization with overlap
     c_bands:  1 eigenvalues not converged
     c_bands:  1 eigenvalues not converged
     ethr =  1.76E-07,  avg # of iterations = 20.0

     negative rho (up, down):  3.085E+00 0.000E+00

     total cpu time spent up to now is      672.1 secs

     WARNING: integrated charge=  1232.09432362, expected=  1232.00000000

     total energy              =  -11427.08509089 Ry
     Harris-Foulkes estimate   =  -11427.09524302 Ry
     estimated scf accuracy    <       0.09357156 Ry

     iteration # 25     ecut=    25.00 Ry     beta= 0.70
     Davidson diagonalization with overlap
     ethr =  1.76E-07,  avg # of iterations =  8.0

     negative rho (up, down):  3.085E+00 0.000E+00

     total cpu time spent up to now is      701.3 secs

     WARNING: integrated charge=  1232.08380064, expected=  1232.00000000

     total energy              =  -11427.09397677 Ry
     Harris-Foulkes estimate   =  -11427.09449930 Ry
     estimated scf accuracy    <       0.00349920 Ry

     iteration # 26     ecut=    25.00 Ry     beta= 0.70
     Davidson diagonalization with overlap
     ethr =  1.76E-07,  avg # of iterations =  1.0

     negative rho (up, down):  3.085E+00 0.000E+00

     total cpu time spent up to now is      716.3 secs

     WARNING: integrated charge=  1232.07543749, expected=  1232.00000000

     total energy              =  -11427.09414216 Ry
     Harris-Foulkes estimate   =  -11427.09426521 Ry
     estimated scf accuracy    <       0.00073454 Ry

     iteration # 27     ecut=    25.00 Ry     beta= 0.70
     Davidson diagonalization with overlap
     ethr =  5.96E-08,  avg # of iterations =  2.0

     negative rho (up, down):  3.085E+00 0.000E+00

     total cpu time spent up to now is      735.0 secs

     WARNING: integrated charge=  1232.06983471, expected=  1232.00000000

     total energy              =  -11427.09406243 Ry
     Harris-Foulkes estimate   =  -11427.09425230 Ry
     estimated scf accuracy    <       0.00135444 Ry

     iteration # 28     ecut=    25.00 Ry     beta= 0.70
     Davidson diagonalization with overlap
     ethr =  5.96E-08,  avg # of iterations =  2.0

     negative rho (up, down):  3.085E+00 0.000E+00

     total cpu time spent up to now is      752.5 secs

     WARNING: integrated charge=  1232.06538567, expected=  1232.00000000

     total energy              =  -11427.09401972 Ry
     Harris-Foulkes estimate   =  -11427.09427405 Ry
     estimated scf accuracy    <       0.00222842 Ry

     iteration # 29     ecut=    25.00 Ry     beta= 0.70
     Davidson diagonalization with overlap
     ethr =  5.96E-08,  avg # of iterations =  2.0

     negative rho (up, down):  3.085E+00 0.000E+00

     total cpu time spent up to now is      770.5 secs

     WARNING: integrated charge=  1232.06432059, expected=  1232.00000000

     total energy              =  -11427.09408533 Ry
     Harris-Foulkes estimate   =  -11427.09418742 Ry
     estimated scf accuracy    <       0.00081550 Ry

     iteration # 30     ecut=    25.00 Ry     beta= 0.70
     Davidson diagonalization with overlap
     ethr =  5.96E-08,  avg # of iterations =  1.0

     negative rho (up, down):  3.085E+00 0.000E+00

     total cpu time spent up to now is      787.4 secs

     WARNING: integrated charge=  1232.06060550, expected=  1232.00000000

     total energy              =  -11427.09410651 Ry
     Harris-Foulkes estimate   =  -11427.09415976 Ry
     estimated scf accuracy    <       0.00051545 Ry

     iteration # 31     ecut=    25.00 Ry     beta= 0.70
     Davidson diagonalization with overlap
     ethr =  4.18E-08,  avg # of iterations =  2.0

     negative rho (up, down):  3.085E+00 0.000E+00

     total cpu time spent up to now is      803.7 secs

     WARNING: integrated charge=  1232.06250568, expected=  1232.00000000

     total energy              =  -11427.09407746 Ry
     Harris-Foulkes estimate   =  -11427.09418908 Ry
     estimated scf accuracy    <       0.00106204 Ry

     iteration # 32     ecut=    25.00 Ry     beta= 0.70
     Davidson diagonalization with overlap
     ethr =  4.18E-08,  avg # of iterations =  2.0

     negative rho (up, down):  3.085E+00 0.000E+00

     total cpu time spent up to now is      819.9 secs

     WARNING: integrated charge=  1232.06110426, expected=  1232.00000000

     total energy              =  -11427.09409335 Ry
     Harris-Foulkes estimate   =  -11427.09416269 Ry
     estimated scf accuracy    <       0.00074702 Ry

     iteration # 33     ecut=    25.00 Ry     beta= 0.70
     Davidson diagonalization with overlap
     ethr =  4.18E-08,  avg # of iterations =  1.0

     negative rho (up, down):  3.085E+00 0.000E+00

     total cpu time spent up to now is      834.8 secs

     WARNING: integrated charge=  1232.01949204, expected=  1232.00000000

     total energy              =  -11427.09391287 Ry
     Harris-Foulkes estimate   =  -11427.09415514 Ry
     estimated scf accuracy    <       0.00057292 Ry

     iteration # 34     ecut=    25.00 Ry     beta= 0.70
     Davidson diagonalization with overlap
     ethr =  4.18E-08,  avg # of iterations =  5.0

     negative rho (up, down):  3.084E+00 0.000E+00

     total cpu time spent up to now is      863.6 secs

     WARNING: integrated charge=  1232.02073778, expected=  1232.00000000

     total energy              =  -11427.09353951 Ry
     Harris-Foulkes estimate   =  -11427.09441649 Ry
     estimated scf accuracy    <       0.00502371 Ry

     iteration # 35     ecut=    25.00 Ry     beta= 0.70
     Davidson diagonalization with overlap
     ethr =  4.18E-08,  avg # of iterations =  4.0

     negative rho (up, down):  3.084E+00 0.000E+00

     total cpu time spent up to now is      887.9 secs

     WARNING: integrated charge=  1232.01852491, expected=  1232.00000000

     total energy              =  -11427.09394965 Ry
     Harris-Foulkes estimate   =  -11427.09407581 Ry
     estimated scf accuracy    <       0.00062444 Ry

     iteration # 36     ecut=    25.00 Ry     beta= 0.70
     Davidson diagonalization with overlap
     ethr =  4.18E-08,  avg # of iterations =  2.0

     negative rho (up, down):  3.084E+00 0.000E+00

     total cpu time spent up to now is      904.1 secs

     WARNING: integrated charge=  1232.01506448, expected=  1232.00000000

     total energy              =  -11427.09391085 Ry
     Harris-Foulkes estimate   =  -11427.09411288 Ry
     estimated scf accuracy    <       0.00134259 Ry

     iteration # 37     ecut=    25.00 Ry     beta= 0.70
     Davidson diagonalization with overlap
     ethr =  4.18E-08,  avg # of iterations =  2.0

     negative rho (up, down):  3.084E+00 0.000E+00

     total cpu time spent up to now is      920.1 secs

     WARNING: integrated charge=  1232.01073619, expected=  1232.00000000

     total energy              =  -11427.09401053 Ry
     Harris-Foulkes estimate   =  -11427.09408621 Ry
     estimated scf accuracy    <       0.00235642 Ry

     iteration # 38     ecut=    25.00 Ry     beta= 0.70
     Davidson diagonalization with overlap
     ethr =  4.18E-08,  avg # of iterations =  3.0

     negative rho (up, down):  3.084E+00 0.000E+00

     total cpu time spent up to now is      938.0 secs

     WARNING: integrated charge=  1232.01067916, expected=  1232.00000000

     total energy              =  -11427.09396705 Ry
     Harris-Foulkes estimate   =  -11427.09407412 Ry
     estimated scf accuracy    <       0.00082205 Ry

     iteration # 39     ecut=    25.00 Ry     beta= 0.70
     Davidson diagonalization with overlap
     ethr =  4.18E-08,  avg # of iterations =  1.0

     negative rho (up, down):  3.085E+00 0.000E+00

     total cpu time spent up to now is      952.9 secs

     WARNING: integrated charge=  1232.00946519, expected=  1232.00000000

     total energy              =  -11427.09400013 Ry
     Harris-Foulkes estimate   =  -11427.09404436 Ry
     estimated scf accuracy    <       0.00031526 Ry

     iteration # 40     ecut=    25.00 Ry     beta= 0.70
     Davidson diagonalization with overlap
     ethr =  2.56E-08,  avg # of iterations =  1.0

     negative rho (up, down):  3.085E+00 0.000E+00

     total cpu time spent up to now is      967.7 secs

     WARNING: integrated charge=  1232.00671719, expected=  1232.00000000

     total energy              =  -11427.09401289 Ry
     Harris-Foulkes estimate   =  -11427.09403337 Ry
     estimated scf accuracy    <       0.00012739 Ry

     iteration # 41     ecut=    25.00 Ry     beta= 0.70
     Davidson diagonalization with overlap
     ethr =  1.03E-08,  avg # of iterations =  1.0

     negative rho (up, down):  3.085E+00 0.000E+00

     total cpu time spent up to now is      982.8 secs

     WARNING: integrated charge=  1232.00685075, expected=  1232.00000000

     total energy              =  -11427.09401955 Ry
     Harris-Foulkes estimate   =  -11427.09402557 Ry
     estimated scf accuracy    <       0.00002852 Ry

     iteration # 42     ecut=    25.00 Ry     beta= 0.70
     Davidson diagonalization with overlap
     ethr =  2.32E-09,  avg # of iterations =  2.0

     negative rho (up, down):  3.085E+00 0.000E+00

     total cpu time spent up to now is      999.0 secs

     WARNING: integrated charge=  1232.00681082, expected=  1232.00000000

     total energy              =  -11427.09401865 Ry
     Harris-Foulkes estimate   =  -11427.09402740 Ry
     estimated scf accuracy    <       0.00008464 Ry

     iteration # 43     ecut=    25.00 Ry     beta= 0.70
     Davidson diagonalization with overlap
     ethr =  2.32E-09,  avg # of iterations =  1.0

     negative rho (up, down):  3.085E+00 0.000E+00

     total cpu time spent up to now is     1014.4 secs

     WARNING: integrated charge=  1232.00742667, expected=  1232.00000000

     total energy              =  -11427.09401474 Ry
     Harris-Foulkes estimate   =  -11427.09402439 Ry
     estimated scf accuracy    <       0.00043735 Ry

     iteration # 44     ecut=    25.00 Ry     beta= 0.70
     Davidson diagonalization with overlap
     ethr =  2.32E-09,  avg # of iterations =  2.0

     negative rho (up, down):  3.085E+00 0.000E+00

     total cpu time spent up to now is     1031.2 secs

     WARNING: integrated charge=  1232.00578213, expected=  1232.00000000

     total energy              =  -11427.09401505 Ry
     Harris-Foulkes estimate   =  -11427.09403072 Ry
     estimated scf accuracy    <       0.00008646 Ry

     iteration # 45     ecut=    25.00 Ry     beta= 0.70
     Davidson diagonalization with overlap
     ethr =  2.32E-09,  avg # of iterations =  2.0

     negative rho (up, down):  3.085E+00 0.000E+00

     total cpu time spent up to now is     1048.2 secs

     WARNING: integrated charge=  1232.00601236, expected=  1232.00000000

     total energy              =  -11427.09402019 Ry
     Harris-Foulkes estimate   =  -11427.09402541 Ry
     estimated scf accuracy    <       0.00141302 Ry

     iteration # 46     ecut=    25.00 Ry     beta= 0.70
     Davidson diagonalization with overlap
     ethr =  2.32E-09,  avg # of iterations =  1.0

     negative rho (up, down):  3.085E+00 0.000E+00

     total cpu time spent up to now is     1062.1 secs

     WARNING: integrated charge=  1232.00437239, expected=  1232.00000000

     total energy              =  -11427.09401820 Ry
     Harris-Foulkes estimate   =  -11427.09402551 Ry
     estimated scf accuracy    <       0.00032061 Ry

     iteration # 47     ecut=    25.00 Ry     beta= 0.70
     Davidson diagonalization with overlap
     ethr =  2.32E-09,  avg # of iterations =  2.0

     negative rho (up, down):  3.085E+00 0.000E+00

     total cpu time spent up to now is     1076.7 secs

     WARNING: integrated charge=  1232.00468758, expected=  1232.00000000

     total energy              =  -11427.09401831 Ry
     Harris-Foulkes estimate   =  -11427.09402657 Ry
     estimated scf accuracy    <       0.00003598 Ry

     iteration # 48     ecut=    25.00 Ry     beta= 0.70
     Davidson diagonalization with overlap
     ethr =  2.32E-09,  avg # of iterations =  2.0

     negative rho (up, down):  3.085E+00 0.000E+00

     total cpu time spent up to now is     1092.7 secs

     WARNING: integrated charge=  1232.00466752, expected=  1232.00000000

     total energy              =  -11427.09402161 Ry
     Harris-Foulkes estimate   =  -11427.09402281 Ry
     estimated scf accuracy    <       0.00000609 Ry

     iteration # 49     ecut=    25.00 Ry     beta= 0.70
     Davidson diagonalization with overlap
     ethr =  4.95E-10,  avg # of iterations =  2.0

     negative rho (up, down):  3.085E+00 0.000E+00

     total cpu time spent up to now is     1108.7 secs

     WARNING: integrated charge=  1232.00441945, expected=  1232.00000000

     total energy              =  -11427.09402148 Ry
     Harris-Foulkes estimate   =  -11427.09402298 Ry
     estimated scf accuracy    <       0.00001139 Ry

     iteration # 50     ecut=    25.00 Ry     beta= 0.70
     Davidson diagonalization with overlap
     ethr =  4.95E-10,  avg # of iterations =  1.0

     negative rho (up, down):  3.085E+00 0.000E+00

     total cpu time spent up to now is     1123.8 secs

     WARNING: integrated charge=  1232.00474312, expected=  1232.00000000

     total energy              =  -11427.09402158 Ry
     Harris-Foulkes estimate   =  -11427.09402302 Ry
     estimated scf accuracy    <       0.00001451 Ry

     iteration # 51     ecut=    25.00 Ry     beta= 0.70
     Davidson diagonalization with overlap
     ethr =  4.95E-10,  avg # of iterations =  2.0

     negative rho (up, down):  3.085E+00 0.000E+00

     total cpu time spent up to now is     1140.0 secs

     WARNING: integrated charge=  1232.00446663, expected=  1232.00000000

     total energy              =  -11427.09402165 Ry
     Harris-Foulkes estimate   =  -11427.09402304 Ry
     estimated scf accuracy    <       0.00001050 Ry

     iteration # 52     ecut=    25.00 Ry     beta= 0.70
     Davidson diagonalization with overlap
     ethr =  4.95E-10,  avg # of iterations =  1.0

     negative rho (up, down):  3.085E+00 0.000E+00

     total cpu time spent up to now is     1154.8 secs

     WARNING: integrated charge=  1232.00410426, expected=  1232.00000000

     total energy              =  -11427.09402180 Ry
     Harris-Foulkes estimate   =  -11427.09402274 Ry
     estimated scf accuracy    <       0.00000787 Ry

     iteration # 53     ecut=    25.00 Ry     beta= 0.70
     Davidson diagonalization with overlap
     ethr =  4.95E-10,  avg # of iterations =  2.0

     negative rho (up, down):  3.085E+00 0.000E+00

     total cpu time spent up to now is     1170.7 secs

     WARNING: integrated charge=  1232.00409783, expected=  1232.00000000

     total energy              =  -11427.09402141 Ry
     Harris-Foulkes estimate   =  -11427.09402309 Ry
     estimated scf accuracy    <       0.00001629 Ry

     iteration # 54     ecut=    25.00 Ry     beta= 0.70
     Davidson diagonalization with overlap
     ethr =  4.95E-10,  avg # of iterations =  1.0

     negative rho (up, down):  3.085E+00 0.000E+00

     total cpu time spent up to now is     1185.6 secs

     WARNING: integrated charge=  1232.00139193, expected=  1232.00000000

     total energy              =  -11427.09402105 Ry
     Harris-Foulkes estimate   =  -11427.09402246 Ry
     estimated scf accuracy    <       0.00000336 Ry

     iteration # 55     ecut=    25.00 Ry     beta= 0.70
     Davidson diagonalization with overlap
     ethr =  2.72E-10,  avg # of iterations =  2.0

     negative rho (up, down):  3.085E+00 0.000E+00

     total cpu time spent up to now is     1205.7 secs

     WARNING: integrated charge=  1232.00200158, expected=  1232.00000000

     total energy              =  -11427.09401445 Ry
     Harris-Foulkes estimate   =  -11427.09402330 Ry
     estimated scf accuracy    <       0.00020913 Ry

     iteration # 56     ecut=    25.00 Ry     beta= 0.70
     Davidson diagonalization with overlap
     ethr =  2.72E-10,  avg # of iterations =  2.0

     negative rho (up, down):  3.085E+00 0.000E+00

     total cpu time spent up to now is     1222.0 secs

     WARNING: integrated charge=  1232.00183762, expected=  1232.00000000

     total energy              =  -11427.09402048 Ry
     Harris-Foulkes estimate   =  -11427.09402307 Ry
     estimated scf accuracy    <       0.00001225 Ry

     iteration # 57     ecut=    25.00 Ry     beta= 0.70
     Davidson diagonalization with overlap
     ethr =  2.72E-10,  avg # of iterations =  2.0

     negative rho (up, down):  3.085E+00 0.000E+00

     total cpu time spent up to now is     1240.2 secs

     WARNING: integrated charge=  1232.00161697, expected=  1232.00000000

     total energy              =  -11427.09402147 Ry
     Harris-Foulkes estimate   =  -11427.09402208 Ry
     estimated scf accuracy    <       0.00000270 Ry

     iteration # 58     ecut=    25.00 Ry     beta= 0.70
     Davidson diagonalization with overlap
     ethr =  2.19E-10,  avg # of iterations =  2.0

     negative rho (up, down):  3.085E+00 0.000E+00

     total cpu time spent up to now is     1256.3 secs

     WARNING: integrated charge=  1232.00144399, expected=  1232.00000000

     total energy              =  -11427.09402160 Ry
     Harris-Foulkes estimate   =  -11427.09402201 Ry
     estimated scf accuracy    <       0.00000249 Ry

     iteration # 59     ecut=    25.00 Ry     beta= 0.70
     Davidson diagonalization with overlap
     ethr =  2.02E-10,  avg # of iterations =  1.0

     negative rho (up, down):  3.085E+00 0.000E+00

     total cpu time spent up to now is     1271.4 secs

     WARNING: integrated charge=  1232.00138145, expected=  1232.00000000

     total energy              =  -11427.09402168 Ry
     Harris-Foulkes estimate   =  -11427.09402195 Ry
     estimated scf accuracy    <       0.00000183 Ry

     iteration # 60     ecut=    25.00 Ry     beta= 0.70
     Davidson diagonalization with overlap
     ethr =  1.49E-10,  avg # of iterations =  1.0

     negative rho (up, down):  3.085E+00 0.000E+00

     total cpu time spent up to now is     1286.0 secs

     WARNING: integrated charge=  1232.00127535, expected=  1232.00000000

     total energy              =  -11427.09402170 Ry
     Harris-Foulkes estimate   =  -11427.09402193 Ry
     estimated scf accuracy    <       0.00000217 Ry

     iteration # 61     ecut=    25.00 Ry     beta= 0.70
     Davidson diagonalization with overlap
     ethr =  1.49E-10,  avg # of iterations =  1.0

     negative rho (up, down):  3.085E+00 0.000E+00

     total cpu time spent up to now is     1300.9 secs

     End of self-consistent calculation

          k = 0.2500 0.5057 0.0000 ( 95386 PWs)   bands (ev):

    -8.0038  -7.7844  -7.3684  -7.1554  -6.9578  -6.8855  -6.8065  -6.6736
    -6.6098  -6.2890  -6.2184  -6.1880  -6.1040  -6.0363  -5.9292  -5.9269
    -5.8877  -5.8381  -5.8300  -5.8239  -5.7929  -5.7350  -5.7229  -5.6804
    -5.6665  -5.6485  -5.6444  -5.6391  -5.5488  -5.5374  -5.5299  -5.5217
    -5.5154  -5.5063  -5.4882  -5.4802  -5.4619  -5.4584  -5.4272  -5.3741
    -5.3680  -5.3527  -5.3505  -5.3160  -5.3089  -5.2928  -5.2902  -5.2327
    -5.2316  -5.2316  -5.2272  -5.2173  -5.1987  -5.1776  -5.1544  -5.1436
    -5.1288  -5.1234  -5.1147  -5.1131  -5.1095  -5.1082  -5.0870  -5.0665
    -5.0637  -5.0560  -5.0549  -5.0479  -5.0397  -5.0367  -5.0294  -4.9867
    -4.9810  -4.9659  -4.9627  -4.9471  -4.9332  -4.9313  -4.9278  -4.9258
    -4.9166  -4.9149  -4.9058  -4.9029  -4.8847  -4.8843  -4.8807  -4.8708
    -4.8708  -4.8611  -4.8585  -4.8477  -4.8270  -4.8259  -4.8237  -4.8210
    -4.7408  -4.7383  -4.7366  -4.7357  -4.7318  -4.7245  -4.7201  -4.7199
    -4.7192  -4.7110  -4.6984  -4.6837  -4.6732  -4.6155  -4.5990  -4.5960
    -4.5923  -4.5839  -4.5614  -4.5600  -4.5563  -4.5257  -4.4695  -4.4684
    -4.4499  -4.4127  -4.3969  -4.3941  -4.3924  -4.3921  -4.3907  -4.3843
    -4.3543  -4.3446  -4.3440  -4.3360  -4.3245  -4.3219  -4.3191  -4.3025
    -4.3010  -4.2728  -4.2634  -4.2563  -4.2466  -4.2441  -4.2283  -4.2095
    -4.1927  -4.1669  -4.1552  -4.1540  -4.1535  -4.1520  -4.1471  -4.1384
    -4.1362  -4.1034  -4.0961  -4.0824  -4.0764  -4.0751  -4.0688  -4.0533
    -4.0495  -4.0342  -4.0296  -4.0230  -4.0202  -4.0161  -4.0074  -3.9928
    -3.9857  -3.9696  -3.9575  -3.9264  -3.9129  -3.8975  -3.8920  -3.8885
    -3.8699  -3.8696  -3.8600  -3.8363  -3.8355  -3.8319  -3.8154  -3.8073
    -3.7849  -3.7790  -3.7381  -3.7347  -3.7254  -3.7230  -3.7138  -3.7091
    -3.6999  -3.6842  -3.6796  -3.6701  -3.6578  -3.6394  -3.6181  -3.6181
    -3.6162  -3.6151  -3.6045  -3.6007  -3.5980  -3.5941  -3.5906  -3.5786
    -3.5687  -3.5659  -3.5634  -3.5585  -3.5564  -3.5498  -3.5447  -3.5437
    -3.5424  -3.5331  -3.5225  -3.4912  -3.4812  -3.4552  -3.4529  -3.4418
    -3.4414  -3.4394  -3.4381  -3.4250  -3.4202  -3.4116  -3.4040  -3.3959
    -3.3868  -3.3786  -3.3729  -3.3709  -3.3692  -3.3684  -3.3632  -3.3552
    -3.3514  -3.3363  -3.3346  -3.3258  -3.3250  -3.3233  -3.3189  -3.3160
    -3.3123  -3.3119  -3.3080  -3.3075  -3.2986  -3.2958  -3.2908  -3.2850
    -3.2803  -3.2784  -3.2580  -3.2487  -3.2457  -3.2427  -3.2370  -3.2277
    -3.2186  -3.2178  -3.2131  -3.2091  -3.2011  -3.1987  -3.1879  -3.1794
    -3.1779  -3.1722  -3.1710  -3.1673  -3.1658  -3.1581  -3.1570  -3.1448
    -3.1446  -3.1205  -3.1201  -3.1095  -3.0972  -3.0895  -3.0833  -3.0569
    -3.0402  -3.0389  -3.0334  -3.0322  -3.0251  -3.0228  -3.0220  -3.0170
    -3.0162  -3.0152  -3.0145  -3.0080  -3.0013  -3.0004  -2.9882  -2.9838
    -2.9807  -2.9797  -2.9790  -2.9739  -2.9738  -2.9700  -2.9676  -2.9498
    -2.9140  -2.9120  -2.8890  -2.8748  -2.8731  -2.8613  -2.8586  -2.8482
    -2.8465  -2.8269  -2.8209  -2.8194  -2.7986  -2.7951  -2.7945  -2.7820
    -2.7786  -2.7743  -2.7663  -2.7630  -2.7491  -2.7481  -2.7457  -2.7410
    -2.7222  -2.7214  -2.7196  -2.7169  -2.6618  -2.6532  -2.6451  -2.6356
    -2.6285  -2.6250  -2.6204  -2.5945  -2.5791  -2.5687  -2.5663  -2.5658
    -2.5624  -2.5580  -2.5520  -2.5397  -2.5270  -2.5241  -2.5184  -2.5150
    -2.5079  -2.5061  -2.5000  -2.4918  -2.4888  -2.4852  -2.4794  -2.4782
    -2.4721  -2.4713  -2.4654  -2.4646  -2.4587  -2.4480  -2.4342  -2.4336
    -2.4054  -2.3991  -2.3972  -2.3732  -2.3692  -2.3622  -2.3548  -2.3547
    -2.3476  -2.3442  -2.3346  -2.3313  -2.3142  -2.2993  -2.2917  -2.2708
    -2.2675  -2.2656  -2.2626  -2.2477  -2.2422  -2.2325  -2.2306  -2.2140
    -2.2115  -2.2044  -2.2042  -2.1968  -2.1960  -2.1772  -2.1438  -2.1350
    -2.1293  -2.1048  -2.1013  -2.0837  -2.0664  -2.0474  -2.0464  -2.0431
    -2.0363  -2.0308  -2.0012  -1.9972  -1.9937  -1.9630  -1.9596  -1.9562
    -1.9550  -1.9508  -1.9470  -1.9442  -1.9382  -1.9377  -1.9359  -1.9298
    -1.9289  -1.9265  -1.9160  -1.9111  -1.9068  -1.9009  -1.8636  -1.8546
    -1.8539  -1.8375  -1.8300  -1.8262  -1.8221  -1.8160  -1.8151  -1.8125
    -1.8104  -1.8004  -1.7991  -1.7980  -1.7923  -1.7654  -1.7586  -1.7575
    -1.7564  -1.7472  -1.7421  -1.7414  -1.7355  -1.7354  -1.7255  -1.7228
    -1.7052  -1.7036  -1.6978  -1.6969  -1.6870  -1.6734  -1.6691  -1.6647
    -1.6624  -1.6576  -1.6497  -1.6277  -1.6120  -1.6027  -1.5983  -1.5964
    -1.5781  -1.5749  -1.5744  -1.5729  -1.5591  -1.5437  -1.5033  -1.4981
    -1.4916  -1.4870  -1.4789  -1.4781  -1.4696  -1.4662  -1.4588  -1.4570
    -1.4500  -1.4433  -1.4326  -1.4314  -1.4251  -1.4122  -1.4116  -1.4063
    -1.3986  -1.3806  -1.3707  -1.3674  -1.3619  -1.3569  -1.3443  -1.3385
    -1.3267  -1.3246  -1.3208  -1.3063  -1.3015  -1.2967  -1.2922  -1.2862
    -1.2861  -1.2768  -1.2755  -1.2660  -1.2635  -1.2543  -1.2526  -1.2486
    -1.2406  -1.2386  -1.2269  -1.2265  -1.2189  -1.2182  -1.2181  -1.2178
    -1.2143  -1.2077  -1.2049  -1.1769  -1.1756  -1.1696  -1.1555  -1.1544
    -1.1439  -1.1391  -1.1368  -1.1325  -1.1290  -1.1240  -1.1234  -1.1207
    -1.1178  -1.1065  -1.1049  -1.0974  -1.0863  -1.0818  -1.0789  -1.0770
    -1.0761  -1.0747  -1.0714  -1.0618  -1.0569  -1.0539  -1.0526  -1.0498
    -1.0491  -1.0431  -1.0034  -0.9800  -0.9687  -0.9639  -0.9512  -0.9362
    -0.9349  -0.9283  -0.9235  -0.9197  -0.9150  -0.9067  -0.8992  -0.8809
    -0.8770  -0.8604  -0.8290  -0.8270  -0.8250  -0.7648  -0.6671  -0.6306
    -0.6005  -0.5935  -0.5457  -0.4518  -0.3787  -0.1925  -0.1592  -0.1179
    -0.0026   0.0232   0.0583   0.1563   0.1631   0.1930   0.2716   0.2893
     0.3165   0.3357   0.5897   0.5932   0.6441   0.6729   0.7330   0.7793
     0.8037   0.8045   0.9251   0.9717   0.9841   1.1564   1.1649   1.1995
     1.3028   1.3273   1.3643   1.3886   1.4806   1.5222   1.5268   1.7965
     1.8692   1.8801   1.8982   1.9010   1.9111   1.9762   1.9831   2.0325
     2.0626   2.0744   2.1953   2.4021   2.4073   2.4093   2.4479   2.4524
     2.6442   2.6550   2.6786   2.7109   2.7226   2.7972   2.8426   3.1820
     3.2045   3.2188   3.2827   3.3305   3.3652   3.3789   3.5453   3.5485
     3.5710   3.6179   3.6269   3.8003   3.8074   3.8949   3.9040   4.0014
     4.0236   4.1252   4.1814   4.2449   4.2484   4.2714   4.3028   4.3984
     4.4731   4.4984   4.5221   4.5659   4.6640   4.8062   4.8125   4.8420
     4.8508   4.8533   4.8949   4.9680   4.9900   5.0751   5.0917   5.1955
     5.2025   5.2129   5.2391   5.2628   5.3018   5.4408   5.4925   5.5266
     5.5336   5.5340   5.5453   5.6509   5.6724   5.7201   5.7328   5.8378
     5.8533   5.8744   5.8967   5.9060   5.9074   5.9796   5.9923   6.0169
     6.0177   6.0275   6.0321   6.0432   6.0866   6.1392   6.1413   6.1483
     6.1667   6.2232   6.2285   6.3078   6.4026   6.4085   6.4466   6.4483
     6.4733   6.5158   6.5247   6.5718   6.5888   6.6333   6.6403   6.6550
     6.6604   6.6918   6.7361   6.7489   6.7681   6.8232   6.8284   6.9303
     6.9363   6.9717   6.9737   6.9983   7.0285   7.0643   7.1001   7.1084
     7.1294   7.1631   7.1916   7.1916   7.2005   7.2032   7.2806   7.2902
     7.3058   7.3555   7.3602   7.4035   7.4180   7.4337   7.4637   7.5095
     7.5618   7.5685   7.6072   7.6173   7.6576   7.6579   7.6661   7.6703
     7.6923   7.6948   7.7176   7.7238   7.7372   7.7430   7.7922   7.8305
     7.8588   7.8681   7.8729   7.9399   7.9890   7.9896   7.9960   8.0026

          k =-0.2500 0.5057 0.0000 ( 95386 PWs)   bands (ev):

    -8.0038  -7.7844  -7.3684  -7.1554  -6.9578  -6.8855  -6.8065  -6.6736
    -6.6098  -6.2890  -6.2184  -6.1880  -6.1040  -6.0363  -5.9292  -5.9269
    -5.8877  -5.8381  -5.8300  -5.8239  -5.7929  -5.7350  -5.7229  -5.6804
    -5.6665  -5.6485  -5.6444  -5.6391  -5.5488  -5.5374  -5.5299  -5.5217
    -5.5154  -5.5063  -5.4882  -5.4802  -5.4619  -5.4584  -5.4272  -5.3741
    -5.3680  -5.3527  -5.3505  -5.3160  -5.3089  -5.2928  -5.2902  -5.2327
    -5.2316  -5.2316  -5.2272  -5.2173  -5.1987  -5.1776  -5.1544  -5.1436
    -5.1288  -5.1234  -5.1147  -5.1131  -5.1095  -5.1082  -5.0870  -5.0665
    -5.0637  -5.0560  -5.0549  -5.0479  -5.0397  -5.0367  -5.0294  -4.9867
    -4.9810  -4.9659  -4.9627  -4.9471  -4.9332  -4.9313  -4.9278  -4.9258
    -4.9166  -4.9149  -4.9058  -4.9029  -4.8847  -4.8844  -4.8807  -4.8708
    -4.8708  -4.8611  -4.8585  -4.8477  -4.8270  -4.8259  -4.8237  -4.8210
    -4.7408  -4.7383  -4.7366  -4.7357  -4.7318  -4.7245  -4.7201  -4.7198
    -4.7192  -4.7109  -4.6984  -4.6837  -4.6732  -4.6155  -4.5990  -4.5960
    -4.5923  -4.5839  -4.5614  -4.5600  -4.5563  -4.5257  -4.4695  -4.4685
    -4.4499  -4.4127  -4.3969  -4.3941  -4.3924  -4.3921  -4.3907  -4.3843
    -4.3543  -4.3446  -4.3440  -4.3360  -4.3245  -4.3219  -4.3191  -4.3025
    -4.3010  -4.2728  -4.2634  -4.2563  -4.2466  -4.2441  -4.2283  -4.2095
    -4.1927  -4.1669  -4.1552  -4.1540  -4.1535  -4.1520  -4.1471  -4.1384
    -4.1362  -4.1034  -4.0961  -4.0824  -4.0764  -4.0751  -4.0688  -4.0533
    -4.0495  -4.0342  -4.0296  -4.0230  -4.0202  -4.0161  -4.0074  -3.9928
    -3.9857  -3.9696  -3.9575  -3.9264  -3.9129  -3.8975  -3.8920  -3.8885
    -3.8699  -3.8696  -3.8600  -3.8363  -3.8355  -3.8319  -3.8154  -3.8073
    -3.7849  -3.7790  -3.7381  -3.7347  -3.7254  -3.7230  -3.7138  -3.7091
    -3.6999  -3.6842  -3.6796  -3.6701  -3.6578  -3.6394  -3.6181  -3.6181
    -3.6162  -3.6151  -3.6045  -3.6007  -3.5980  -3.5941  -3.5906  -3.5786
    -3.5687  -3.5659  -3.5634  -3.5585  -3.5564  -3.5498  -3.5448  -3.5437
    -3.5424  -3.5331  -3.5225  -3.4912  -3.4812  -3.4552  -3.4529  -3.4418
    -3.4414  -3.4394  -3.4381  -3.4250  -3.4202  -3.4116  -3.4040  -3.3959
    -3.3868  -3.3786  -3.3729  -3.3709  -3.3692  -3.3684  -3.3632  -3.3552
    -3.3514  -3.3363  -3.3346  -3.3258  -3.3250  -3.3233  -3.3189  -3.3160
    -3.3123  -3.3119  -3.3080  -3.3075  -3.2986  -3.2959  -3.2908  -3.2850
    -3.2803  -3.2784  -3.2580  -3.2486  -3.2457  -3.2427  -3.2370  -3.2277
    -3.2186  -3.2178  -3.2131  -3.2091  -3.2011  -3.1987  -3.1879  -3.1794
    -3.1779  -3.1722  -3.1710  -3.1673  -3.1658  -3.1581  -3.1570  -3.1448
    -3.1446  -3.1205  -3.1201  -3.1095  -3.0972  -3.0895  -3.0833  -3.0569
    -3.0402  -3.0389  -3.0334  -3.0322  -3.0251  -3.0228  -3.0220  -3.0170
    -3.0162  -3.0152  -3.0145  -3.0080  -3.0013  -3.0004  -2.9883  -2.9838
    -2.9807  -2.9796  -2.9789  -2.9739  -2.9739  -2.9700  -2.9676  -2.9498
    -2.9140  -2.9120  -2.8890  -2.8748  -2.8731  -2.8613  -2.8586  -2.8482
    -2.8465  -2.8269  -2.8209  -2.8194  -2.7986  -2.7951  -2.7945  -2.7820
    -2.7786  -2.7743  -2.7663  -2.7630  -2.7491  -2.7481  -2.7457  -2.7410
    -2.7222  -2.7214  -2.7196  -2.7169  -2.6618  -2.6532  -2.6451  -2.6356
    -2.6285  -2.6250  -2.6204  -2.5945  -2.5790  -2.5687  -2.5663  -2.5658
    -2.5624  -2.5579  -2.5520  -2.5397  -2.5270  -2.5241  -2.5184  -2.5150
    -2.5079  -2.5061  -2.5001  -2.4918  -2.4888  -2.4852  -2.4794  -2.4782
    -2.4721  -2.4713  -2.4654  -2.4646  -2.4587  -2.4480  -2.4342  -2.4336
    -2.4054  -2.3991  -2.3972  -2.3732  -2.3692  -2.3622  -2.3548  -2.3547
    -2.3476  -2.3441  -2.3346  -2.3313  -2.3142  -2.2993  -2.2917  -2.2708
    -2.2675  -2.2656  -2.2626  -2.2477  -2.2422  -2.2325  -2.2306  -2.2140
    -2.2115  -2.2044  -2.2042  -2.1968  -2.1960  -2.1772  -2.1438  -2.1350
    -2.1293  -2.1048  -2.1013  -2.0837  -2.0664  -2.0474  -2.0464  -2.0431
    -2.0363  -2.0308  -2.0012  -1.9972  -1.9938  -1.9630  -1.9596  -1.9562
    -1.9550  -1.9508  -1.9470  -1.9442  -1.9382  -1.9377  -1.9359  -1.9298
    -1.9288  -1.9264  -1.9160  -1.9111  -1.9068  -1.9009  -1.8636  -1.8546
    -1.8539  -1.8375  -1.8300  -1.8262  -1.8221  -1.8160  -1.8150  -1.8125
    -1.8104  -1.8004  -1.7991  -1.7980  -1.7923  -1.7654  -1.7586  -1.7575
    -1.7564  -1.7472  -1.7421  -1.7414  -1.7355  -1.7354  -1.7255  -1.7228
    -1.7052  -1.7036  -1.6978  -1.6969  -1.6870  -1.6734  -1.6691  -1.6647
    -1.6624  -1.6576  -1.6497  -1.6277  -1.6120  -1.6027  -1.5983  -1.5964
    -1.5781  -1.5749  -1.5744  -1.5729  -1.5591  -1.5437  -1.5033  -1.4981
    -1.4916  -1.4870  -1.4789  -1.4781  -1.4696  -1.4662  -1.4588  -1.4570
    -1.4500  -1.4433  -1.4326  -1.4314  -1.4251  -1.4122  -1.4116  -1.4063
    -1.3986  -1.3806  -1.3707  -1.3674  -1.3619  -1.3569  -1.3443  -1.3385
    -1.3267  -1.3246  -1.3208  -1.3063  -1.3015  -1.2967  -1.2922  -1.2863
    -1.2861  -1.2768  -1.2755  -1.2660  -1.2635  -1.2543  -1.2526  -1.2486
    -1.2406  -1.2386  -1.2269  -1.2265  -1.2189  -1.2182  -1.2181  -1.2178
    -1.2143  -1.2077  -1.2049  -1.1769  -1.1756  -1.1696  -1.1555  -1.1544
    -1.1439  -1.1391  -1.1368  -1.1325  -1.1290  -1.1240  -1.1234  -1.1207
    -1.1178  -1.1065  -1.1049  -1.0974  -1.0863  -1.0818  -1.0789  -1.0770
    -1.0761  -1.0747  -1.0714  -1.0618  -1.0569  -1.0539  -1.0526  -1.0498
    -1.0491  -1.0431  -1.0034  -0.9800  -0.9687  -0.9639  -0.9512  -0.9363
    -0.9347  -0.9283  -0.9235  -0.9197  -0.9150  -0.9067  -0.8992  -0.8809
    -0.8770  -0.8604  -0.8290  -0.8270  -0.8250  -0.7648  -0.6671  -0.6306
    -0.6005  -0.5935  -0.5457  -0.4518  -0.3787  -0.1925  -0.1592  -0.1179
    -0.0026   0.0232   0.0583   0.1563   0.1631   0.1930   0.2716   0.2893
     0.3165   0.3357   0.5897   0.5932   0.6441   0.6729   0.7330   0.7793
     0.8037   0.8045   0.9251   0.9717   0.9841   1.1564   1.1649   1.1995
     1.3028   1.3273   1.3643   1.3886   1.4806   1.5222   1.5268   1.7965
     1.8692   1.8801   1.8982   1.9010   1.9111   1.9762   1.9831   2.0325
     2.0626   2.0744   2.1953   2.4021   2.4073   2.4093   2.4479   2.4524
     2.6442   2.6550   2.6786   2.7109   2.7226   2.7972   2.8426   3.1820
     3.2045   3.2188   3.2827   3.3305   3.3652   3.3789   3.5453   3.5485
     3.5710   3.6179   3.6269   3.8003   3.8074   3.8949   3.9040   4.0014
     4.0236   4.1252   4.1814   4.2449   4.2484   4.2714   4.3028   4.3984
     4.4731   4.4984   4.5221   4.5659   4.6640   4.8062   4.8125   4.8420
     4.8508   4.8533   4.8949   4.9680   4.9900   5.0751   5.0917   5.1955
     5.2025   5.2129   5.2391   5.2628   5.3018   5.4408   5.4925   5.5266
     5.5336   5.5340   5.5453   5.6509   5.6724   5.7201   5.7328   5.8378
     5.8533   5.8744   5.8967   5.9060   5.9074   5.9796   5.9923   6.0169
     6.0177   6.0275   6.0321   6.0432   6.0866   6.1392   6.1413   6.1483
     6.1667   6.2232   6.2285   6.3078   6.4026   6.4085   6.4466   6.4483
     6.4733   6.5158   6.5247   6.5718   6.5888   6.6333   6.6403   6.6550
     6.6604   6.6918   6.7361   6.7489   6.7681   6.8232   6.8284   6.9303
     6.9363   6.9717   6.9737   6.9983   7.0285   7.0643   7.1001   7.1084
     7.1294   7.1631   7.1916   7.1916   7.2005   7.2032   7.2806   7.2902
     7.3058   7.3555   7.3602   7.4035   7.4180   7.4337   7.4637   7.5095
     7.5618   7.5685   7.6072   7.6173   7.6576   7.6579   7.6661   7.6703
     7.6923   7.6948   7.7176   7.7238   7.7372   7.7430   7.7922   7.8305
     7.8588   7.8681   7.8729   7.9399   7.9890   7.9896   7.9960   8.0026

     the Fermi energy is     0.7855 ev

!    total energy              =  -11427.09402113 Ry
     Harris-Foulkes estimate   =  -11427.09402185 Ry
     estimated scf accuracy    <       0.00000075 Ry

     The total energy is the sum of the following terms:

     one-electron contribution = -129707.66227586 Ry
     hartree contribution      =   65677.84619300 Ry
     xc contribution           =   -5523.82335197 Ry
     ewald contribution        =   58126.48229572 Ry
     smearing contrib. (-TS)   =       0.06311797 Ry

     convergence has been achieved in  61 iterations

     negative rho (up, down):  3.085E+00 0.000E+00

     Forces acting on atoms (cartesian axes, Ry/au):

     atom    1 type  1   force =    -0.00100386    0.00009658    0.00831121
     atom    2 type  1   force =    -0.00102851   -0.00014430    0.00802586
     atom    3 type  1   force =    -0.00014904    0.00017357    0.00894056
     atom    4 type  1   force =    -0.00017206   -0.00011711    0.00865466
     atom    5 type  1   force =     0.00003990    0.00021412    0.00900497
     atom    6 type  1   force =     0.00003749   -0.00009204    0.00871417
     atom    7 type  1   force =    -0.00015343    0.00022464    0.00897986
     atom    8 type  1   force =    -0.00013749   -0.00014854    0.00870159
     atom    9 type  1   force =     0.00014421    0.00022398    0.00899083
     atom   10 type  1   force =     0.00018154   -0.00015552    0.00871638
     atom   11 type  1   force =    -0.00003865    0.00019030    0.00901515
     atom   12 type  1   force =    -0.00003136   -0.00009892    0.00871871
     atom   13 type  1   force =     0.00078612    0.00017148    0.00875817
     atom   14 type  1   force =     0.00077821   -0.00001767    0.00848238
     atom   15 type  1   force =    -0.00131733    0.00039524   -0.00539161
     atom   16 type  1   force =    -0.00133728   -0.00005939   -0.00549441
     atom   17 type  1   force =    -0.00018985    0.00035053   -0.00539387
     atom   18 type  1   force =    -0.00020690   -0.00007352   -0.00553170
     atom   19 type  1   force =     0.00004228    0.00036654   -0.00534538
     atom   20 type  1   force =    -0.00000233   -0.00005866   -0.00543024
     atom   21 type  1   force =    -0.00019245    0.00037266   -0.00532189
     atom   22 type  1   force =    -0.00019291   -0.00008140   -0.00543935
     atom   23 type  1   force =     0.00019761    0.00038885   -0.00533575
     atom   24 type  1   force =     0.00021811   -0.00008671   -0.00542065
     atom   25 type  1   force =    -0.00002671    0.00038295   -0.00538708
     atom   26 type  1   force =     0.00002870   -0.00007965   -0.00545120
     atom   27 type  1   force =     0.00100795    0.00036371   -0.00541350
     atom   28 type  1   force =     0.00100490   -0.00007085   -0.00544921
     atom   29 type  1   force =    -0.00059330   -0.00010875    0.00852739
     atom   30 type  1   force =    -0.00060610   -0.00050158    0.00855930
     atom   31 type  1   force =    -0.00005459   -0.00015488    0.00873884
     atom   32 type  1   force =    -0.00006218   -0.00049016    0.00877642
     atom   33 type  1   force =     0.00006649   -0.00016801    0.00871327
     atom   34 type  1   force =     0.00002643   -0.00049779    0.00874731
     atom   35 type  1   force =    -0.00000124   -0.00013144    0.00877757
     atom   36 type  1   force =    -0.00001772   -0.00050521    0.00882331
     atom   37 type  1   force =    -0.00004213   -0.00010154    0.00873590
     atom   38 type  1   force =     0.00001459   -0.00054294    0.00876337
     atom   39 type  1   force =     0.00009477   -0.00010270    0.00872577
     atom   40 type  1   force =     0.00016191   -0.00055430    0.00874446
     atom   41 type  1   force =     0.00090026   -0.00021065    0.00802540
     atom   42 type  1   force =     0.00085591   -0.00063835    0.00804058
     atom   43 type  1   force =    -0.00077878   -0.00006192   -0.00542952
     atom   44 type  1   force =    -0.00075326   -0.00066883   -0.00537706
     atom   45 type  1   force =    -0.00009205   -0.00007985   -0.00543663
     atom   46 type  1   force =    -0.00008548   -0.00065455   -0.00538779
     atom   47 type  1   force =     0.00006968   -0.00009372   -0.00539715
     atom   48 type  1   force =     0.00005662   -0.00061982   -0.00533830
     atom   49 type  1   force =    -0.00001343   -0.00010495   -0.00535781
     atom   50 type  1   force =    -0.00003003   -0.00061403   -0.00532851
     atom   51 type  1   force =    -0.00000357   -0.00007985   -0.00536810
     atom   52 type  1   force =     0.00000998   -0.00062747   -0.00534742
     atom   53 type  1   force =     0.00017135   -0.00005306   -0.00542753
     atom   54 type  1   force =     0.00019665   -0.00069314   -0.00539826
     atom   55 type  1   force =     0.00112890    0.00000064   -0.00544292
     atom   56 type  1   force =     0.00111998   -0.00064064   -0.00538022
     atom   57 type  1   force =    -0.00103136    0.00065173   -0.00836654
     atom   58 type  1   force =    -0.00101495    0.00027792   -0.00801013
     atom   59 type  1   force =    -0.00018473    0.00059377   -0.00898633
     atom   60 type  1   force =    -0.00020429    0.00023540   -0.00865581
     atom   61 type  1   force =    -0.00001614    0.00061005   -0.00906469
     atom   62 type  1   force =    -0.00002908    0.00015499   -0.00874049
     atom   63 type  1   force =    -0.00013549    0.00064689   -0.00903406
     atom   64 type  1   force =    -0.00012620    0.00015177   -0.00870544
     atom   65 type  1   force =     0.00017503    0.00062515   -0.00904052
     atom   66 type  1   force =     0.00016298    0.00016331   -0.00870454
     atom   67 type  1   force =     0.00002900    0.00061485   -0.00903826
     atom   68 type  1   force =     0.00001368    0.00014390   -0.00872605
     atom   69 type  1   force =     0.00079363    0.00059151   -0.00881084
     atom   70 type  1   force =     0.00082447    0.00011881   -0.00847609
     atom   71 type  1   force =    -0.00076685    0.00070224    0.00521122
     atom   72 type  1   force =    -0.00078608    0.00028343    0.00537108
     atom   73 type  1   force =    -0.00012035    0.00071330    0.00525794
     atom   74 type  1   force =    -0.00015630    0.00026345    0.00541575
     atom   75 type  1   force =     0.00005319    0.00074343    0.00526172
     atom   76 type  1   force =     0.00004894    0.00021767    0.00544700
     atom   77 type  1   force =    -0.00001849    0.00075990    0.00523809
     atom   78 type  1   force =    -0.00000646    0.00021839    0.00541490
     atom   79 type  1   force =    -0.00000057    0.00074485    0.00523372
     atom   80 type  1   force =     0.00001337    0.00021949    0.00542744
     atom   81 type  1   force =     0.00019926    0.00073756    0.00523235
     atom   82 type  1   force =     0.00021683    0.00025324    0.00546030
     atom   83 type  1   force =     0.00113487    0.00067894    0.00520210
     atom   84 type  1   force =     0.00116579    0.00022827    0.00539902
     atom   85 type  1   force =    -0.00133153    0.00008940    0.00537466
     atom   86 type  1   force =    -0.00131322   -0.00079690    0.00555274
     atom   87 type  1   force =    -0.00021200    0.00011277    0.00543084
     atom   88 type  1   force =    -0.00022886   -0.00075655    0.00557159
     atom   89 type  1   force =     0.00001902    0.00007078    0.00542411
     atom   90 type  1   force =    -0.00002658   -0.00071180    0.00560744
     atom   91 type  1   force =    -0.00018205    0.00006304    0.00540206
     atom   92 type  1   force =    -0.00018380   -0.00071500    0.00559393
     atom   93 type  1   force =     0.00019880    0.00005739    0.00540001
     atom   94 type  1   force =     0.00019312   -0.00074407    0.00556674
     atom   95 type  1   force =     0.00000547    0.00008254    0.00541180
     atom   96 type  1   force =     0.00001922   -0.00072242    0.00561360
     atom   97 type  1   force =     0.00101552    0.00009606    0.00535266
     atom   98 type  1   force =     0.00103008   -0.00073141    0.00557518
     atom   99 type  1   force =    -0.00062739    0.00011061   -0.00852397
     atom  100 type  1   force =    -0.00061972   -0.00029281   -0.00854173
     atom  101 type  1   force =    -0.00009354    0.00012090   -0.00875929
     atom  102 type  1   force =    -0.00014972   -0.00025585   -0.00877622
     atom  103 type  1   force =     0.00005156    0.00013007   -0.00870630
     atom  104 type  1   force =     0.00002495   -0.00024179   -0.00877436
     atom  105 type  1   force =    -0.00001639    0.00012509   -0.00874944
     atom  106 type  1   force =     0.00002017   -0.00025305   -0.00881917
     atom  107 type  1   force =     0.00000743    0.00012789   -0.00869390
     atom  108 type  1   force =    -0.00000255   -0.00022743   -0.00876544
     atom  109 type  1   force =     0.00018274    0.00013631   -0.00869070
     atom  110 type  1   force =     0.00017951   -0.00022337   -0.00875475
     atom  111 type  1   force =     0.00086046    0.00022679   -0.00799779
     atom  112 type  1   force =     0.00091915   -0.00015275   -0.00802749

     Total force =     0.076822     Total SCF correction =     0.004428

     Writing output data file ./ausurf.save/
 
     init_run     :      9.40s CPU      9.76s WALL (       1 calls)
     electrons    :   1260.55s CPU   1289.95s WALL (       1 calls)
     forces       :      3.35s CPU      3.50s WALL (       1 calls)

     Called by init_run:
     wfcinit      :      7.56s CPU      7.78s WALL (       1 calls)
     potinit      :      0.14s CPU      0.16s WALL (       1 calls)
     hinit0       :      0.57s CPU      0.59s WALL (       1 calls)

     Called by electrons:
     c_bands      :   1128.45s CPU   1153.21s WALL (      62 calls)
     sum_band     :    123.40s CPU    126.53s WALL (      62 calls)
     v_of_rho     :      2.95s CPU      3.19s WALL (      62 calls)
     newd         :      4.69s CPU      5.69s WALL (      62 calls)
     mix_rho      :      0.70s CPU      0.72s WALL (      62 calls)

     Called by c_bands:
     init_us_2    :      2.37s CPU      2.42s WALL (     252 calls)
     cegterg      :   1117.78s CPU   1141.91s WALL (     124 calls)

     Called by sum_band:
     sum_band:bec :      1.67s CPU      1.68s WALL (     124 calls)
     addusdens    :      4.07s CPU      5.31s WALL (      62 calls)

     Called by *egterg:
     h_psi        :    525.79s CPU    534.38s WALL (     633 calls)
     s_psi        :     55.38s CPU     56.52s WALL (     633 calls)
     g_psi        :      0.77s CPU      0.77s WALL (     507 calls)
     cdiaghg      :    341.68s CPU    351.54s WALL (     629 calls)

     Called by h_psi:
     h_psi:calbec :     75.48s CPU     77.14s WALL (     633 calls)
     vloc_psi     :    393.02s CPU    398.14s WALL (     633 calls)
     add_vuspsi   :     55.73s CPU     57.01s WALL (     633 calls)

     General routines
     calbec       :    111.49s CPU    113.78s WALL (     765 calls)
     fft          :      3.23s CPU      3.25s WALL (     816 calls)
     ffts         :      0.24s CPU      0.25s WALL (     124 calls)
     fftw         :    459.96s CPU    466.00s WALL (  530872 calls)
     interpolate  :      0.32s CPU      0.32s WALL (      62 calls)
 
     Parallel routines
     fft_scatt_xy :     17.46s CPU     17.70s WALL (  531812 calls)
     fft_scatt_yz :    385.28s CPU    390.68s WALL (  531812 calls)
 
     PWSCF        :  21m19.68s CPU  22m35.45s WALL

 
   This run was terminated on:  13:45:47  16Jul2020            

=------------------------------------------------------------------------------=
   JOB DONE.
=------------------------------------------------------------------------------=
