
     Program PWSCF v.6.5 starts on 16Jul2020 at 13: 8:26 

     This program is part of the open-source Quantum ESPRESSO suite
     for quantum simulation of materials; please cite
         "P. Giannozzi et al., J. Phys.:Condens. Matter 21 395502 (2009);
         "P. Giannozzi et al., J. Phys.:Condens. Matter 29 465901 (2017);
          URL http://www.quantum-espresso.org", 
     in publications or presentations arising from this work. More details at
     http://www.quantum-espresso.org/quote

     Parallel version (MPI & OpenMP), running on     576 processor cores
     Number of MPI processes:               576
     Threads/MPI process:                     1

     MPI processes distributed on    16 nodes
     R & G space division:  proc/nbgrp/npool/nimage =     576
     Reading input from ausurf.in

     Current dimensions of program PWSCF are:
     Max number of different atomic species (ntypx) = 10
     Max number of k-points (npk) =  40000
     Max angular momentum in pseudopotentials (lmaxx) =  3

     Subspace diagonalization in iterative solution of the eigenvalue problem:
     one sub-group per band group will be used
     scalapack distributed-memory algorithm (size of sub-group: 24* 24 procs)

 
     Parallelization info
     --------------------
     sticks:   dense  smooth     PW     G-vecs:    dense   smooth      PW
     Min          20      10      2                 3732     1316     154
     Max          21      11      3                 3767     1337     197
     Sum       11837    5915   1537              2158381   763307  100747
 

     Title: 
      DEISA pw benchmark                                                        


     bravais-lattice index     =            8
     lattice parameter (alat)  =      38.7583  a.u.
     unit-cell volume          =   45191.4962 (a.u.)^3
     number of atoms/cell      =          112
     number of atomic types    =            1
     number of electrons       =      1232.00
     number of Kohn-Sham states=          800
     kinetic-energy cutoff     =      25.0000  Ry
     charge density cutoff     =     200.0000  Ry
     convergence threshold     =      1.0E-06
     mixing beta               =       0.7000
     number of iterations used =            8  plain     mixing
     Exchange-correlation=  SLA  PW   PBE  PBE
                           (   1   4   3   4   0   0   0)

     celldm(1)=  38.758300  celldm(2)=   0.494393  celldm(3)=   1.569966
     celldm(4)=   0.000000  celldm(5)=   0.000000  celldm(6)=   0.000000

     crystal axes: (cart. coord. in units of alat)
               a(1) = (   1.000000   0.000000   0.000000 )  
               a(2) = (   0.000000   0.494393   0.000000 )  
               a(3) = (   0.000000   0.000000   1.569966 )  

     reciprocal axes: (cart. coord. in units 2 pi/alat)
               b(1) = (  1.000000  0.000000  0.000000 )  
               b(2) = (  0.000000  2.022682  0.000000 )  
               b(3) = (  0.000000  0.000000  0.636956 )  


     PseudoPot. # 1 for Au read from file:
     ./Au.pbe-nd-van.UPF
     MD5 check sum: deb5c07af10777505a79e28f5b4b4115
     Pseudo is Ultrasoft + core correction, Zval = 11.0
     Generated by new atomic code, or converted to UPF format
     Using radial grid of  985 points,  3 beta functions with: 
                l(1) =   1
                l(2) =   2
                l(3) =   2
     Q(r) pseudized with  8 coefficients,  rinner =    1.100   1.100   1.100
                                                       1.100   1.100

     atomic species   valence    mass     pseudopotential
        AU            11.00   196.96000     Au( 1.00)

     No symmetry found



   Cartesian axes

     site n.     atom                  positions (alat units)
         1           AU  tau(   1) = (   1.4278395   1.9784974   0.3497317  )
         2           AU  tau(   2) = (   1.4278395   1.7313987   0.3497317  )
         3           AU  tau(   3) = (   1.5706478   1.9784974   0.3497317  )
         4           AU  tau(   4) = (   1.5706478   1.7313987   0.3497317  )
         5           AU  tau(   5) = (   1.7134072   1.9784974   0.3497317  )
         6           AU  tau(   6) = (   1.7134072   1.7313987   0.3497317  )
         7           AU  tau(   7) = (   1.8562156   1.9784974   0.3497317  )
         8           AU  tau(   8) = (   1.8562156   1.7313987   0.3497317  )
         9           AU  tau(   9) = (   1.9989753   1.9784974   0.3497317  )
        10           AU  tau(  10) = (   1.9989753   1.7313987   0.3497317  )
        11           AU  tau(  11) = (   2.1417836   1.9784974   0.3497317  )
        12           AU  tau(  12) = (   2.1417836   1.7313987   0.3497317  )
        13           AU  tau(  13) = (   2.2845431   1.9784974   0.3497317  )
        14           AU  tau(  14) = (   2.2845431   1.7313987   0.3497317  )
        15           AU  tau(  15) = (   1.4278395   2.0609450   0.2331545  )
        16           AU  tau(  16) = (   1.4278395   1.8138461   0.2331545  )
        17           AU  tau(  17) = (   1.5706478   2.0609450   0.2331545  )
        18           AU  tau(  18) = (   1.5706478   1.8138461   0.2331545  )
        19           AU  tau(  19) = (   1.7134072   2.0609450   0.2331545  )
        20           AU  tau(  20) = (   1.7134072   1.8138461   0.2331545  )
        21           AU  tau(  21) = (   1.8562156   2.0609450   0.2331545  )
        22           AU  tau(  22) = (   1.8562156   1.8138461   0.2331545  )
        23           AU  tau(  23) = (   1.9989753   2.0609450   0.2331545  )
        24           AU  tau(  24) = (   1.9989753   1.8138461   0.2331545  )
        25           AU  tau(  25) = (   2.1417836   2.0609450   0.2331545  )
        26           AU  tau(  26) = (   2.1417836   1.8138461   0.2331545  )
        27           AU  tau(  27) = (   2.2845431   2.0609450   0.2331545  )
        28           AU  tau(  28) = (   2.2845431   1.8138461   0.2331545  )
        29           AU  tau(  29) = (   1.4992193   2.1021445   0.3497317  )
        30           AU  tau(  30) = (   1.4992193   1.8550456   0.3497317  )
        31           AU  tau(  31) = (   1.6420276   2.1021445   0.3497317  )
        32           AU  tau(  32) = (   1.6420276   1.8550456   0.3497317  )
        33           AU  tau(  33) = (   1.7847871   2.1021445   0.3497317  )
        34           AU  tau(  34) = (   1.7847871   1.8550456   0.3497317  )
        35           AU  tau(  35) = (   1.9275954   2.1021445   0.3497317  )
        36           AU  tau(  36) = (   1.9275954   1.8550456   0.3497317  )
        37           AU  tau(  37) = (   2.0704038   2.1021445   0.3497317  )
        38           AU  tau(  38) = (   2.0704038   1.8550456   0.3497317  )
        39           AU  tau(  39) = (   2.2131632   2.1021445   0.3497317  )
        40           AU  tau(  40) = (   2.2131632   1.8550456   0.3497317  )
        41           AU  tau(  41) = (   2.3559716   2.1021445   0.3497317  )
        42           AU  tau(  42) = (   2.3559716   1.8550456   0.3497317  )
        43           AU  tau(  43) = (   1.4992193   1.6901992   0.2331545  )
        44           AU  tau(  44) = (   1.4992193   1.9374930   0.2331545  )
        45           AU  tau(  45) = (   1.6420276   1.6901992   0.2331545  )
        46           AU  tau(  46) = (   1.6420276   1.9374930   0.2331545  )
        47           AU  tau(  47) = (   1.7847871   1.6901992   0.2331545  )
        48           AU  tau(  48) = (   1.7847871   1.9374930   0.2331545  )
        49           AU  tau(  49) = (   1.9275954   1.6901992   0.2331545  )
        50           AU  tau(  50) = (   1.9275954   1.9374930   0.2331545  )
        51           AU  tau(  51) = (   2.0704038   1.6901992   0.2331545  )
        52           AU  tau(  52) = (   2.0704038   1.9374930   0.2331545  )
        53           AU  tau(  53) = (   2.2131632   1.6901992   0.2331545  )
        54           AU  tau(  54) = (   2.2131632   1.9374930   0.2331545  )
        55           AU  tau(  55) = (   2.3559716   1.6901992   0.2331545  )
        56           AU  tau(  56) = (   2.3559716   1.9374930   0.2331545  )
        57           AU  tau(  57) = (   1.4278395   1.9784974   0.0000000  )
        58           AU  tau(  58) = (   1.4278395   1.7313987   0.0000000  )
        59           AU  tau(  59) = (   1.5706478   1.9784974   0.0000000  )
        60           AU  tau(  60) = (   1.5706478   1.7313987   0.0000000  )
        61           AU  tau(  61) = (   1.7134072   1.9784974   0.0000000  )
        62           AU  tau(  62) = (   1.7134072   1.7313987   0.0000000  )
        63           AU  tau(  63) = (   1.8562156   1.9784974   0.0000000  )
        64           AU  tau(  64) = (   1.8562156   1.7313987   0.0000000  )
        65           AU  tau(  65) = (   1.9989753   1.9784974   0.0000000  )
        66           AU  tau(  66) = (   1.9989753   1.7313987   0.0000000  )
        67           AU  tau(  67) = (   2.1417836   1.9784974   0.0000000  )
        68           AU  tau(  68) = (   2.1417836   1.7313987   0.0000000  )
        69           AU  tau(  69) = (   2.2845431   1.9784974   0.0000000  )
        70           AU  tau(  70) = (   2.2845431   1.7313987   0.0000000  )
        71           AU  tau(  71) = (   1.4992193   2.0196968   0.1165772  )
        72           AU  tau(  72) = (   1.4992193   1.7725979   0.1165772  )
        73           AU  tau(  73) = (   1.6420276   2.0196968   0.1165772  )
        74           AU  tau(  74) = (   1.6420276   1.7725979   0.1165772  )
        75           AU  tau(  75) = (   1.7847871   2.0196968   0.1165772  )
        76           AU  tau(  76) = (   1.7847871   1.7725979   0.1165772  )
        77           AU  tau(  77) = (   1.9275954   2.0196968   0.1165772  )
        78           AU  tau(  78) = (   1.9275954   1.7725979   0.1165772  )
        79           AU  tau(  79) = (   2.0704038   2.0196968   0.1165772  )
        80           AU  tau(  80) = (   2.0704038   1.7725979   0.1165772  )
        81           AU  tau(  81) = (   2.2131632   2.0196968   0.1165772  )
        82           AU  tau(  82) = (   2.2131632   1.7725979   0.1165772  )
        83           AU  tau(  83) = (   2.3559716   2.0196968   0.1165772  )
        84           AU  tau(  84) = (   2.3559716   1.7725979   0.1165772  )
        85           AU  tau(  85) = (   1.4278395   2.1433437   0.1165772  )
        86           AU  tau(  86) = (   1.4278395   1.8962938   0.1165772  )
        87           AU  tau(  87) = (   1.5706478   2.1433437   0.1165772  )
        88           AU  tau(  88) = (   1.5706478   1.8962938   0.1165772  )
        89           AU  tau(  89) = (   1.7134072   2.1433437   0.1165772  )
        90           AU  tau(  90) = (   1.7134072   1.8962938   0.1165772  )
        91           AU  tau(  91) = (   1.8562156   2.1433437   0.1165772  )
        92           AU  tau(  92) = (   1.8562156   1.8962938   0.1165772  )
        93           AU  tau(  93) = (   1.9989753   2.1433437   0.1165772  )
        94           AU  tau(  94) = (   1.9989753   1.8962938   0.1165772  )
        95           AU  tau(  95) = (   2.1417836   2.1433437   0.1165772  )
        96           AU  tau(  96) = (   2.1417836   1.8962938   0.1165772  )
        97           AU  tau(  97) = (   2.2845431   2.1433437   0.1165772  )
        98           AU  tau(  98) = (   2.2845431   1.8962938   0.1165772  )
        99           AU  tau(  99) = (   1.4992193   2.1021445   0.0000000  )
       100           AU  tau( 100) = (   1.4992193   1.8550456   0.0000000  )
       101           AU  tau( 101) = (   1.6420276   2.1021445   0.0000000  )
       102           AU  tau( 102) = (   1.6420276   1.8550456   0.0000000  )
       103           AU  tau( 103) = (   1.7847871   2.1021445   0.0000000  )
       104           AU  tau( 104) = (   1.7847871   1.8550456   0.0000000  )
       105           AU  tau( 105) = (   1.9275954   2.1021445   0.0000000  )
       106           AU  tau( 106) = (   1.9275954   1.8550456   0.0000000  )
       107           AU  tau( 107) = (   2.0704038   2.1021445   0.0000000  )
       108           AU  tau( 108) = (   2.0704038   1.8550456   0.0000000  )
       109           AU  tau( 109) = (   2.2131632   2.1021445   0.0000000  )
       110           AU  tau( 110) = (   2.2131632   1.8550456   0.0000000  )
       111           AU  tau( 111) = (   2.3559716   2.1021445   0.0000000  )
       112           AU  tau( 112) = (   2.3559716   1.8550456   0.0000000  )

     number of k points=     2  Marzari-Vanderbilt smearing, width (Ry)=  0.0500
                       cart. coord. in units 2pi/alat
        k(    1) = (   0.2500000   0.5056706   0.0000000), wk =   1.0000000
        k(    2) = (  -0.2500000   0.5056706   0.0000000), wk =   1.0000000

     Dense  grid:  2158381 G-vectors     FFT dimensions: ( 180,  90, 288)

     Smooth grid:   763307 G-vectors     FFT dimensions: ( 125,  64, 200)

     Estimated max dynamical RAM per process >      57.11 MB

     Estimated total dynamical RAM >      32.13 GB

     Initial potential from superposition of free atoms

     starting charge 1230.69946, renormalised to 1232.00000

     negative rho (up, down):  3.043E+00 0.000E+00
     Starting wfcs are 1008 randomized atomic wfcs

     total cpu time spent up to now is        7.7 secs

     Self-consistent Calculation

     iteration #  1     ecut=    25.00 Ry     beta= 0.70
     Davidson diagonalization with overlap
     ethr =  1.00E-02,  avg # of iterations =  6.5

     Threshold (ethr) on eigenvalues was too large:
     Diagonalizing with lowered threshold

     Davidson diagonalization with overlap
     ethr =  4.43E-04,  avg # of iterations =  5.0

     negative rho (up, down):  2.992E+00 0.000E+00

     total cpu time spent up to now is       41.5 secs

     total energy              =  -11423.48660947 Ry
     Harris-Foulkes estimate   =  -11428.44976627 Ry
     estimated scf accuracy    <       6.33166870 Ry

     iteration #  2     ecut=    25.00 Ry     beta= 0.70
     Davidson diagonalization with overlap
     ethr =  5.14E-04,  avg # of iterations = 11.5

     negative rho (up, down):  2.993E+00 0.000E+00

     total cpu time spent up to now is       79.0 secs

     WARNING: integrated charge=  1232.00411377, expected=  1232.00000000

     total energy              =  -11408.19772663 Ry
     Harris-Foulkes estimate   =  -11440.30535953 Ry
     estimated scf accuracy    <     197.47941079 Ry

     iteration #  3     ecut=    25.00 Ry     beta= 0.70
     Davidson diagonalization with overlap
     ethr =  5.14E-04,  avg # of iterations =  6.0

     negative rho (up, down):  3.039E+00 0.000E+00

     total cpu time spent up to now is      106.6 secs

     WARNING: integrated charge=  1232.00657518, expected=  1232.00000000

     total energy              =  -11426.40475716 Ry
     Harris-Foulkes estimate   =  -11427.98351237 Ry
     estimated scf accuracy    <       5.25688036 Ry

     iteration #  4     ecut=    25.00 Ry     beta= 0.70
     Davidson diagonalization with overlap
     ethr =  4.27E-04,  avg # of iterations =  3.0

     negative rho (up, down):  3.046E+00 0.000E+00

     total cpu time spent up to now is      118.7 secs

     WARNING: integrated charge=  1232.00611839, expected=  1232.00000000

     total energy              =  -11426.62440633 Ry
     Harris-Foulkes estimate   =  -11427.34852891 Ry
     estimated scf accuracy    <       4.27922270 Ry

     iteration #  5     ecut=    25.00 Ry     beta= 0.70
     Davidson diagonalization with overlap
     ethr =  3.47E-04,  avg # of iterations =  4.0

     negative rho (up, down):  3.061E+00 0.000E+00

     total cpu time spent up to now is      132.0 secs

     WARNING: integrated charge=  1232.00469283, expected=  1232.00000000

     total energy              =  -11426.87063831 Ry
     Harris-Foulkes estimate   =  -11427.36017051 Ry
     estimated scf accuracy    <       4.78490497 Ry

     iteration #  6     ecut=    25.00 Ry     beta= 0.70
     Davidson diagonalization with overlap
     ethr =  3.47E-04,  avg # of iterations =  1.0

     negative rho (up, down):  3.068E+00 0.000E+00

     total cpu time spent up to now is      141.4 secs

     WARNING: integrated charge=  1232.00286938, expected=  1232.00000000

     total energy              =  -11427.07826352 Ry
     Harris-Foulkes estimate   =  -11427.10135690 Ry
     estimated scf accuracy    <       0.09628745 Ry

     iteration #  7     ecut=    25.00 Ry     beta= 0.70
     Davidson diagonalization with overlap
     ethr =  7.82E-06,  avg # of iterations = 18.5

     negative rho (up, down):  3.074E+00 0.000E+00

     total cpu time spent up to now is      184.8 secs

     WARNING: integrated charge=  1232.00155169, expected=  1232.00000000

     total energy              =  -11427.04359853 Ry
     Harris-Foulkes estimate   =  -11427.13699030 Ry
     estimated scf accuracy    <       0.81573527 Ry

     iteration #  8     ecut=    25.00 Ry     beta= 0.70
     Davidson diagonalization with overlap
     ethr =  7.82E-06,  avg # of iterations =  9.5

     negative rho (up, down):  3.080E+00 0.000E+00

     total cpu time spent up to now is      208.1 secs

     WARNING: integrated charge=  1231.99141314, expected=  1232.00000000

     total energy              =  -11427.06539965 Ry
     Harris-Foulkes estimate   =  -11427.12305554 Ry
     estimated scf accuracy    <       0.55663008 Ry

     iteration #  9     ecut=    25.00 Ry     beta= 0.70
     Davidson diagonalization with overlap
     ethr =  7.82E-06,  avg # of iterations =  7.5

     negative rho (up, down):  3.081E+00 0.000E+00

     total cpu time spent up to now is      228.7 secs

     WARNING: integrated charge=  1231.99162258, expected=  1232.00000000

     total energy              =  -11427.09126865 Ry
     Harris-Foulkes estimate   =  -11427.09599323 Ry
     estimated scf accuracy    <       0.02474742 Ry

     iteration # 10     ecut=    25.00 Ry     beta= 0.70
     Davidson diagonalization with overlap
     ethr =  2.01E-06,  avg # of iterations =  7.0

     negative rho (up, down):  3.079E+00 0.000E+00

     total cpu time spent up to now is      247.3 secs

     WARNING: integrated charge=  1231.99512472, expected=  1232.00000000

     total energy              =  -11427.09210963 Ry
     Harris-Foulkes estimate   =  -11427.09480326 Ry
     estimated scf accuracy    <       0.01183489 Ry

     iteration # 11     ecut=    25.00 Ry     beta= 0.70
     Davidson diagonalization with overlap
     ethr =  9.61E-07,  avg # of iterations =  9.5

     negative rho (up, down):  3.082E+00 0.000E+00

     total cpu time spent up to now is      276.2 secs

     WARNING: integrated charge=  1231.99612282, expected=  1232.00000000

     total energy              =  -11427.08972495 Ry
     Harris-Foulkes estimate   =  -11427.09818784 Ry
     estimated scf accuracy    <       0.08618394 Ry

     iteration # 12     ecut=    25.00 Ry     beta= 0.70
     Davidson diagonalization with overlap
     ethr =  9.61E-07,  avg # of iterations =  8.0

     negative rho (up, down):  3.083E+00 0.000E+00

     total cpu time spent up to now is      294.9 secs

     WARNING: integrated charge=  1231.99706359, expected=  1232.00000000

     total energy              =  -11427.09362208 Ry
     Harris-Foulkes estimate   =  -11427.09432236 Ry
     estimated scf accuracy    <       0.00268043 Ry

     iteration # 13     ecut=    25.00 Ry     beta= 0.70
     Davidson diagonalization with overlap
     ethr =  2.18E-07,  avg # of iterations =  2.0

     negative rho (up, down):  3.084E+00 0.000E+00

     total cpu time spent up to now is      305.5 secs

     WARNING: integrated charge=  1232.00886434, expected=  1232.00000000

     total energy              =  -11427.09390193 Ry
     Harris-Foulkes estimate   =  -11427.09406657 Ry
     estimated scf accuracy    <       0.00053183 Ry

     iteration # 14     ecut=    25.00 Ry     beta= 0.70
     Davidson diagonalization with overlap
     ethr =  4.32E-08,  avg # of iterations =  3.5

     negative rho (up, down):  3.084E+00 0.000E+00

     total cpu time spent up to now is      319.2 secs

     WARNING: integrated charge=  1232.01700703, expected=  1232.00000000

     total energy              =  -11427.09387439 Ry
     Harris-Foulkes estimate   =  -11427.09409371 Ry
     estimated scf accuracy    <       0.00211968 Ry

     iteration # 15     ecut=    25.00 Ry     beta= 0.70
     Davidson diagonalization with overlap
     ethr =  4.32E-08,  avg # of iterations =  1.0

     negative rho (up, down):  3.084E+00 0.000E+00

     total cpu time spent up to now is      328.9 secs

     WARNING: integrated charge=  1232.01214547, expected=  1232.00000000

     total energy              =  -11427.09388253 Ry
     Harris-Foulkes estimate   =  -11427.09411139 Ry
     estimated scf accuracy    <       0.00121127 Ry

     iteration # 16     ecut=    25.00 Ry     beta= 0.70
     Davidson diagonalization with overlap
     ethr =  4.32E-08,  avg # of iterations =  2.0

     negative rho (up, down):  3.084E+00 0.000E+00

     total cpu time spent up to now is      339.7 secs

     WARNING: integrated charge=  1232.01063102, expected=  1232.00000000

     total energy              =  -11427.09393668 Ry
     Harris-Foulkes estimate   =  -11427.09410571 Ry
     estimated scf accuracy    <       0.00160232 Ry

     iteration # 17     ecut=    25.00 Ry     beta= 0.70
     Davidson diagonalization with overlap
     ethr =  4.32E-08,  avg # of iterations =  1.0

     negative rho (up, down):  3.084E+00 0.000E+00

     total cpu time spent up to now is      349.1 secs

     WARNING: integrated charge=  1232.00753010, expected=  1232.00000000

     total energy              =  -11427.09401217 Ry
     Harris-Foulkes estimate   =  -11427.09403030 Ry
     estimated scf accuracy    <       0.00004727 Ry

     iteration # 18     ecut=    25.00 Ry     beta= 0.70
     Davidson diagonalization with overlap
     ethr =  3.84E-09,  avg # of iterations =  3.0

     negative rho (up, down):  3.084E+00 0.000E+00

     total cpu time spent up to now is      362.9 secs

     WARNING: integrated charge=  1232.00868268, expected=  1232.00000000

     total energy              =  -11427.09399289 Ry
     Harris-Foulkes estimate   =  -11427.09405284 Ry
     estimated scf accuracy    <       0.01323951 Ry

     iteration # 19     ecut=    25.00 Ry     beta= 0.70
     Davidson diagonalization with overlap
     ethr =  3.84E-09,  avg # of iterations =  1.0

     negative rho (up, down):  3.084E+00 0.000E+00

     total cpu time spent up to now is      372.3 secs

     WARNING: integrated charge=  1232.00719157, expected=  1232.00000000

     total energy              =  -11427.09399153 Ry
     Harris-Foulkes estimate   =  -11427.09405084 Ry
     estimated scf accuracy    <       0.00062087 Ry

     iteration # 20     ecut=    25.00 Ry     beta= 0.70
     Davidson diagonalization with overlap
     ethr =  3.84E-09,  avg # of iterations =  2.0

     negative rho (up, down):  3.084E+00 0.000E+00

     total cpu time spent up to now is      383.4 secs

     WARNING: integrated charge=  1232.00638142, expected=  1232.00000000

     total energy              =  -11427.09401837 Ry
     Harris-Foulkes estimate   =  -11427.09402668 Ry
     estimated scf accuracy    <       0.00006166 Ry

     iteration # 21     ecut=    25.00 Ry     beta= 0.70
     Davidson diagonalization with overlap
     ethr =  3.84E-09,  avg # of iterations =  1.0

     negative rho (up, down):  3.085E+00 0.000E+00

     total cpu time spent up to now is      393.1 secs

     WARNING: integrated charge=  1232.00649683, expected=  1232.00000000

     total energy              =  -11427.09401608 Ry
     Harris-Foulkes estimate   =  -11427.09402727 Ry
     estimated scf accuracy    <       0.00009862 Ry

     iteration # 22     ecut=    25.00 Ry     beta= 0.70
     Davidson diagonalization with overlap
     ethr =  3.84E-09,  avg # of iterations =  1.0

     negative rho (up, down):  3.085E+00 0.000E+00

     total cpu time spent up to now is      402.6 secs

     WARNING: integrated charge=  1232.00655960, expected=  1232.00000000

     total energy              =  -11427.09401477 Ry
     Harris-Foulkes estimate   =  -11427.09402966 Ry
     estimated scf accuracy    <       0.00010778 Ry

     iteration # 23     ecut=    25.00 Ry     beta= 0.70
     Davidson diagonalization with overlap
     ethr =  3.84E-09,  avg # of iterations =  2.0

     negative rho (up, down):  3.085E+00 0.000E+00

     total cpu time spent up to now is      413.2 secs

     WARNING: integrated charge=  1232.00626268, expected=  1232.00000000

     total energy              =  -11427.09402003 Ry
     Harris-Foulkes estimate   =  -11427.09402516 Ry
     estimated scf accuracy    <       0.00002251 Ry

     iteration # 24     ecut=    25.00 Ry     beta= 0.70
     Davidson diagonalization with overlap
     ethr =  1.83E-09,  avg # of iterations =  2.0

     negative rho (up, down):  3.085E+00 0.000E+00

     total cpu time spent up to now is      423.8 secs

     WARNING: integrated charge=  1232.00577166, expected=  1232.00000000

     total energy              =  -11427.09402177 Ry
     Harris-Foulkes estimate   =  -11427.09402348 Ry
     estimated scf accuracy    <       0.00000729 Ry

     iteration # 25     ecut=    25.00 Ry     beta= 0.70
     Davidson diagonalization with overlap
     ethr =  5.91E-10,  avg # of iterations =  2.0

     negative rho (up, down):  3.085E+00 0.000E+00

     total cpu time spent up to now is      434.4 secs

     WARNING: integrated charge=  1232.00561932, expected=  1232.00000000

     total energy              =  -11427.09402238 Ry
     Harris-Foulkes estimate   =  -11427.09402294 Ry
     estimated scf accuracy    <       0.00000430 Ry

     iteration # 26     ecut=    25.00 Ry     beta= 0.70
     Davidson diagonalization with overlap
     ethr =  3.49E-10,  avg # of iterations =  1.0

     negative rho (up, down):  3.085E+00 0.000E+00

     total cpu time spent up to now is      444.0 secs

     WARNING: integrated charge=  1232.00559973, expected=  1232.00000000

     total energy              =  -11427.09402251 Ry
     Harris-Foulkes estimate   =  -11427.09402284 Ry
     estimated scf accuracy    <       0.00000352 Ry

     iteration # 27     ecut=    25.00 Ry     beta= 0.70
     Davidson diagonalization with overlap
     ethr =  2.86E-10,  avg # of iterations =  1.0

     negative rho (up, down):  3.085E+00 0.000E+00

     total cpu time spent up to now is      453.9 secs

     WARNING: integrated charge=  1232.00250708, expected=  1232.00000000

     total energy              =  -11427.09402152 Ry
     Harris-Foulkes estimate   =  -11427.09402277 Ry
     estimated scf accuracy    <       0.00001751 Ry

     iteration # 28     ecut=    25.00 Ry     beta= 0.70
     Davidson diagonalization with overlap
     ethr =  2.86E-10,  avg # of iterations =  5.0

     negative rho (up, down):  3.085E+00 0.000E+00

     total cpu time spent up to now is      472.8 secs

     WARNING: integrated charge=  1232.00533028, expected=  1232.00000000

     total energy              =  -11427.09409674 Ry
     Harris-Foulkes estimate   =  -11427.09402368 Ry
     estimated scf accuracy    <       0.00404923 Ry

     iteration # 29     ecut=    25.00 Ry     beta= 0.70
     Davidson diagonalization with overlap
     ethr =  2.86E-10,  avg # of iterations =  2.0

     negative rho (up, down):  3.085E+00 0.000E+00

     total cpu time spent up to now is      483.7 secs

     WARNING: integrated charge=  1232.00514512, expected=  1232.00000000

     total energy              =  -11427.09402091 Ry
     Harris-Foulkes estimate   =  -11427.09402373 Ry
     estimated scf accuracy    <       0.00001419 Ry

     iteration # 30     ecut=    25.00 Ry     beta= 0.70
     Davidson diagonalization with overlap
     ethr =  2.86E-10,  avg # of iterations =  2.0

     negative rho (up, down):  3.085E+00 0.000E+00

     total cpu time spent up to now is      495.5 secs

     WARNING: integrated charge=  1232.00518757, expected=  1232.00000000

     total energy              =  -11427.09402165 Ry
     Harris-Foulkes estimate   =  -11427.09402318 Ry
     estimated scf accuracy    <       0.00001666 Ry

     iteration # 31     ecut=    25.00 Ry     beta= 0.70
     Davidson diagonalization with overlap
     ethr =  2.86E-10,  avg # of iterations =  2.0

     negative rho (up, down):  3.085E+00 0.000E+00

     total cpu time spent up to now is      506.3 secs

     WARNING: integrated charge=  1232.00523428, expected=  1232.00000000

     total energy              =  -11427.09402226 Ry
     Harris-Foulkes estimate   =  -11427.09402270 Ry
     estimated scf accuracy    <       0.00000462 Ry

     iteration # 32     ecut=    25.00 Ry     beta= 0.70
     Davidson diagonalization with overlap
     ethr =  2.86E-10,  avg # of iterations =  1.0

     negative rho (up, down):  3.085E+00 0.000E+00

     total cpu time spent up to now is      515.9 secs

     WARNING: integrated charge=  1232.00526937, expected=  1232.00000000

     total energy              =  -11427.09402232 Ry
     Harris-Foulkes estimate   =  -11427.09402265 Ry
     estimated scf accuracy    <       0.00000428 Ry

     iteration # 33     ecut=    25.00 Ry     beta= 0.70
     Davidson diagonalization with overlap
     ethr =  2.86E-10,  avg # of iterations =  1.0

     negative rho (up, down):  3.085E+00 0.000E+00

     total cpu time spent up to now is      525.5 secs

     WARNING: integrated charge=  1232.00524550, expected=  1232.00000000

     total energy              =  -11427.09402245 Ry
     Harris-Foulkes estimate   =  -11427.09402255 Ry
     estimated scf accuracy    <       0.00000159 Ry

     iteration # 34     ecut=    25.00 Ry     beta= 0.70
     Davidson diagonalization with overlap
     ethr =  1.29E-10,  avg # of iterations =  1.0

     negative rho (up, down):  3.085E+00 0.000E+00

     total cpu time spent up to now is      535.0 secs

     WARNING: integrated charge=  1232.00521790, expected=  1232.00000000

     total energy              =  -11427.09402247 Ry
     Harris-Foulkes estimate   =  -11427.09402255 Ry
     estimated scf accuracy    <       0.00000168 Ry

     iteration # 35     ecut=    25.00 Ry     beta= 0.70
     Davidson diagonalization with overlap
     ethr =  1.29E-10,  avg # of iterations =  1.0

     negative rho (up, down):  3.085E+00 0.000E+00

     total cpu time spent up to now is      544.4 secs

     WARNING: integrated charge=  1232.00521391, expected=  1232.00000000

     total energy              =  -11427.09402250 Ry
     Harris-Foulkes estimate   =  -11427.09402253 Ry
     estimated scf accuracy    <       0.00000148 Ry

     iteration # 36     ecut=    25.00 Ry     beta= 0.70
     Davidson diagonalization with overlap
     ethr =  1.20E-10,  avg # of iterations =  1.0

     negative rho (up, down):  3.085E+00 0.000E+00

     total cpu time spent up to now is      553.8 secs

     WARNING: integrated charge=  1232.00523014, expected=  1232.00000000

     total energy              =  -11427.09402251 Ry
     Harris-Foulkes estimate   =  -11427.09402253 Ry
     estimated scf accuracy    <       0.00000144 Ry

     iteration # 37     ecut=    25.00 Ry     beta= 0.70
     Davidson diagonalization with overlap
     ethr =  1.17E-10,  avg # of iterations =  1.0

     negative rho (up, down):  3.085E+00 0.000E+00

     total cpu time spent up to now is      566.7 secs

     WARNING: integrated charge=  1232.00339169, expected=  1232.00000000

     total energy              =  -11427.09402131 Ry
     Harris-Foulkes estimate   =  -11427.09402253 Ry
     estimated scf accuracy    <       0.00001926 Ry

     iteration # 38     ecut=    25.00 Ry     beta= 0.70
     Davidson diagonalization with overlap
     ethr =  1.17E-10,  avg # of iterations =  4.5

     negative rho (up, down):  3.085E+00 0.000E+00

     total cpu time spent up to now is      585.3 secs

     WARNING: integrated charge=  1232.00361633, expected=  1232.00000000

     total energy              =  -11427.09403255 Ry
     Harris-Foulkes estimate   =  -11427.09402253 Ry
     estimated scf accuracy    <       0.00185078 Ry

     iteration # 39     ecut=    25.00 Ry     beta= 0.70
     Davidson diagonalization with overlap
     ethr =  1.17E-10,  avg # of iterations =  1.0

     negative rho (up, down):  3.085E+00 0.000E+00

     total cpu time spent up to now is      594.8 secs

     WARNING: integrated charge=  1232.00369668, expected=  1232.00000000

     total energy              =  -11427.09402139 Ry
     Harris-Foulkes estimate   =  -11427.09402262 Ry
     estimated scf accuracy    <       0.00000553 Ry

     iteration # 40     ecut=    25.00 Ry     beta= 0.70
     Davidson diagonalization with overlap
     ethr =  1.17E-10,  avg # of iterations =  2.0

     negative rho (up, down):  3.085E+00 0.000E+00

     total cpu time spent up to now is      607.3 secs

     WARNING: integrated charge=  1232.00416513, expected=  1232.00000000

     total energy              =  -11427.09399805 Ry
     Harris-Foulkes estimate   =  -11427.09402244 Ry
     estimated scf accuracy    <       0.01415118 Ry

     iteration # 41     ecut=    25.00 Ry     beta= 0.70
     Davidson diagonalization with overlap
     ethr =  1.17E-10,  avg # of iterations =  1.0

     negative rho (up, down):  3.085E+00 0.000E+00

     total cpu time spent up to now is      616.6 secs

     WARNING: integrated charge=  1232.00448634, expected=  1232.00000000

     total energy              =  -11427.09402186 Ry
     Harris-Foulkes estimate   =  -11427.09402250 Ry
     estimated scf accuracy    <       0.00000650 Ry

     iteration # 42     ecut=    25.00 Ry     beta= 0.70
     Davidson diagonalization with overlap
     ethr =  1.17E-10,  avg # of iterations =  2.0

     negative rho (up, down):  3.085E+00 0.000E+00

     total cpu time spent up to now is      627.6 secs

     WARNING: integrated charge=  1232.00442970, expected=  1232.00000000

     total energy              =  -11427.09402205 Ry
     Harris-Foulkes estimate   =  -11427.09402243 Ry
     estimated scf accuracy    <       0.00000399 Ry

     iteration # 43     ecut=    25.00 Ry     beta= 0.70
     Davidson diagonalization with overlap
     ethr =  1.17E-10,  avg # of iterations =  1.0

     negative rho (up, down):  3.085E+00 0.000E+00

     total cpu time spent up to now is      637.0 secs

     WARNING: integrated charge=  1232.00447182, expected=  1232.00000000

     total energy              =  -11427.09402220 Ry
     Harris-Foulkes estimate   =  -11427.09402231 Ry
     estimated scf accuracy    <       0.00000164 Ry

     iteration # 44     ecut=    25.00 Ry     beta= 0.70
     Davidson diagonalization with overlap
     ethr =  1.17E-10,  avg # of iterations =  1.0

     negative rho (up, down):  3.085E+00 0.000E+00

     total cpu time spent up to now is      646.5 secs

     WARNING: integrated charge=  1232.00440028, expected=  1232.00000000

     total energy              =  -11427.09402217 Ry
     Harris-Foulkes estimate   =  -11427.09402234 Ry
     estimated scf accuracy    <       0.00000217 Ry

     iteration # 45     ecut=    25.00 Ry     beta= 0.70
     Davidson diagonalization with overlap
     ethr =  1.17E-10,  avg # of iterations =  1.0

     negative rho (up, down):  3.085E+00 0.000E+00

     total cpu time spent up to now is      655.7 secs

     WARNING: integrated charge=  1232.00430484, expected=  1232.00000000

     total energy              =  -11427.09402210 Ry
     Harris-Foulkes estimate   =  -11427.09402238 Ry
     estimated scf accuracy    <       0.00000345 Ry

     iteration # 46     ecut=    25.00 Ry     beta= 0.70
     Davidson diagonalization with overlap
     ethr =  1.17E-10,  avg # of iterations =  1.0

     negative rho (up, down):  3.085E+00 0.000E+00

     total cpu time spent up to now is      665.1 secs

     WARNING: integrated charge=  1232.00421125, expected=  1232.00000000

     total energy              =  -11427.09402215 Ry
     Harris-Foulkes estimate   =  -11427.09402232 Ry
     estimated scf accuracy    <       0.00000219 Ry

     iteration # 47     ecut=    25.00 Ry     beta= 0.70
     Davidson diagonalization with overlap
     ethr =  1.17E-10,  avg # of iterations =  1.0

     negative rho (up, down):  3.085E+00 0.000E+00

     total cpu time spent up to now is      674.7 secs

     WARNING: integrated charge=  1232.00438736, expected=  1232.00000000

     total energy              =  -11427.09402218 Ry
     Harris-Foulkes estimate   =  -11427.09402232 Ry
     estimated scf accuracy    <       0.00000170 Ry

     iteration # 48     ecut=    25.00 Ry     beta= 0.70
     Davidson diagonalization with overlap
     ethr =  1.17E-10,  avg # of iterations =  1.0

     negative rho (up, down):  3.085E+00 0.000E+00

     total cpu time spent up to now is      684.3 secs

     WARNING: integrated charge=  1232.00418295, expected=  1232.00000000

     total energy              =  -11427.09402219 Ry
     Harris-Foulkes estimate   =  -11427.09402231 Ry
     estimated scf accuracy    <       0.00000134 Ry

     iteration # 49     ecut=    25.00 Ry     beta= 0.70
     Davidson diagonalization with overlap
     ethr =  1.09E-10,  avg # of iterations =  1.0

     negative rho (up, down):  3.085E+00 0.000E+00

     total cpu time spent up to now is      693.8 secs

     WARNING: integrated charge=  1232.00132689, expected=  1232.00000000

     total energy              =  -11427.09402143 Ry
     Harris-Foulkes estimate   =  -11427.09402230 Ry
     estimated scf accuracy    <       0.00000169 Ry

     iteration # 50     ecut=    25.00 Ry     beta= 0.70
     Davidson diagonalization with overlap
     ethr =  1.09E-10,  avg # of iterations =  3.0

     negative rho (up, down):  3.085E+00 0.000E+00

     total cpu time spent up to now is      708.3 secs

     WARNING: integrated charge=  1232.00144539, expected=  1232.00000000

     total energy              =  -11427.09402572 Ry
     Harris-Foulkes estimate   =  -11427.09402209 Ry
     estimated scf accuracy    <       0.00077513 Ry

     iteration # 51     ecut=    25.00 Ry     beta= 0.70
     Davidson diagonalization with overlap
     ethr =  1.09E-10,  avg # of iterations =  1.0

     negative rho (up, down):  3.085E+00 0.000E+00

     total cpu time spent up to now is      717.8 secs

     WARNING: integrated charge=  1232.00115331, expected=  1232.00000000

     total energy              =  -11427.09402102 Ry
     Harris-Foulkes estimate   =  -11427.09402221 Ry
     estimated scf accuracy    <       0.00000492 Ry

     iteration # 52     ecut=    25.00 Ry     beta= 0.70
     Davidson diagonalization with overlap
     ethr =  1.09E-10,  avg # of iterations =  3.0

     negative rho (up, down):  3.085E+00 0.000E+00

     total cpu time spent up to now is      732.1 secs

     WARNING: integrated charge=  1232.00121151, expected=  1232.00000000

     total energy              =  -11427.09401790 Ry
     Harris-Foulkes estimate   =  -11427.09402188 Ry
     estimated scf accuracy    <       0.00193532 Ry

     iteration # 53     ecut=    25.00 Ry     beta= 0.70
     Davidson diagonalization with overlap
     ethr =  1.09E-10,  avg # of iterations =  1.0

     negative rho (up, down):  3.085E+00 0.000E+00

     total cpu time spent up to now is      741.5 secs

     WARNING: integrated charge=  1232.00092696, expected=  1232.00000000

     total energy              =  -11427.09402153 Ry
     Harris-Foulkes estimate   =  -11427.09402183 Ry
     estimated scf accuracy    <       0.00000184 Ry

     iteration # 54     ecut=    25.00 Ry     beta= 0.70
     Davidson diagonalization with overlap
     ethr =  1.09E-10,  avg # of iterations =  2.0

     negative rho (up, down):  3.085E+00 0.000E+00

     total cpu time spent up to now is      752.6 secs

     WARNING: integrated charge=  1232.00073487, expected=  1232.00000000

     total energy              =  -11427.09402159 Ry
     Harris-Foulkes estimate   =  -11427.09402184 Ry
     estimated scf accuracy    <       0.00000111 Ry

     iteration # 55     ecut=    25.00 Ry     beta= 0.70
     Davidson diagonalization with overlap
     ethr =  8.97E-11,  avg # of iterations =  2.0

     negative rho (up, down):  3.085E+00 0.000E+00

     total cpu time spent up to now is      763.3 secs

     WARNING: integrated charge=  1232.00061501, expected=  1232.00000000

     total energy              =  -11427.09402157 Ry
     Harris-Foulkes estimate   =  -11427.09402186 Ry
     estimated scf accuracy    <       0.00000276 Ry

     iteration # 56     ecut=    25.00 Ry     beta= 0.70
     Davidson diagonalization with overlap
     ethr =  8.97E-11,  avg # of iterations =  1.0

     negative rho (up, down):  3.085E+00 0.000E+00

     total cpu time spent up to now is      772.9 secs

     End of self-consistent calculation

          k = 0.2500 0.5057 0.0000 ( 95386 PWs)   bands (ev):

    -8.0043  -7.7849  -7.3689  -7.1559  -6.9583  -6.8860  -6.8070  -6.6741
    -6.6103  -6.2895  -6.2189  -6.1885  -6.1045  -6.0368  -5.9297  -5.9274
    -5.8882  -5.8386  -5.8305  -5.8244  -5.7934  -5.7355  -5.7235  -5.6809
    -5.6670  -5.6490  -5.6449  -5.6396  -5.5493  -5.5379  -5.5304  -5.5222
    -5.5159  -5.5067  -5.4887  -5.4807  -5.4624  -5.4590  -5.4277  -5.3747
    -5.3685  -5.3532  -5.3510  -5.3166  -5.3094  -5.2933  -5.2907  -5.2332
    -5.2322  -5.2321  -5.2277  -5.2178  -5.1992  -5.1781  -5.1549  -5.1441
    -5.1293  -5.1239  -5.1152  -5.1136  -5.1100  -5.1087  -5.0875  -5.0670
    -5.0642  -5.0565  -5.0554  -5.0483  -5.0402  -5.0371  -5.0299  -4.9872
    -4.9815  -4.9664  -4.9632  -4.9476  -4.9337  -4.9319  -4.9283  -4.9263
    -4.9171  -4.9154  -4.9064  -4.9034  -4.8853  -4.8848  -4.8812  -4.8713
    -4.8713  -4.8616  -4.8590  -4.8482  -4.8275  -4.8264  -4.8242  -4.8215
    -4.7413  -4.7387  -4.7371  -4.7362  -4.7323  -4.7250  -4.7206  -4.7203
    -4.7196  -4.7115  -4.6989  -4.6842  -4.6737  -4.6160  -4.5995  -4.5965
    -4.5928  -4.5845  -4.5619  -4.5605  -4.5568  -4.5262  -4.4700  -4.4690
    -4.4503  -4.4132  -4.3974  -4.3946  -4.3929  -4.3926  -4.3911  -4.3848
    -4.3548  -4.3451  -4.3445  -4.3365  -4.3250  -4.3224  -4.3196  -4.3030
    -4.3015  -4.2733  -4.2639  -4.2568  -4.2471  -4.2446  -4.2288  -4.2100
    -4.1932  -4.1673  -4.1556  -4.1545  -4.1540  -4.1525  -4.1477  -4.1389
    -4.1367  -4.1039  -4.0966  -4.0829  -4.0769  -4.0756  -4.0693  -4.0538
    -4.0500  -4.0347  -4.0301  -4.0234  -4.0208  -4.0166  -4.0079  -3.9933
    -3.9862  -3.9701  -3.9580  -3.9269  -3.9134  -3.8980  -3.8925  -3.8890
    -3.8704  -3.8701  -3.8606  -3.8368  -3.8360  -3.8324  -3.8159  -3.8078
    -3.7854  -3.7795  -3.7386  -3.7352  -3.7259  -3.7235  -3.7143  -3.7096
    -3.7004  -3.6847  -3.6801  -3.6706  -3.6583  -3.6399  -3.6186  -3.6186
    -3.6167  -3.6156  -3.6050  -3.6012  -3.5985  -3.5946  -3.5911  -3.5791
    -3.5692  -3.5664  -3.5639  -3.5589  -3.5569  -3.5503  -3.5452  -3.5443
    -3.5429  -3.5336  -3.5230  -3.4917  -3.4817  -3.4557  -3.4534  -3.4423
    -3.4419  -3.4399  -3.4386  -3.4254  -3.4208  -3.4121  -3.4045  -3.3964
    -3.3873  -3.3791  -3.3734  -3.3714  -3.3697  -3.3689  -3.3637  -3.3557
    -3.3519  -3.3368  -3.3350  -3.3263  -3.3255  -3.3238  -3.3194  -3.3165
    -3.3128  -3.3124  -3.3085  -3.3080  -3.2991  -3.2963  -3.2913  -3.2855
    -3.2808  -3.2789  -3.2585  -3.2492  -3.2462  -3.2432  -3.2375  -3.2282
    -3.2191  -3.2183  -3.2136  -3.2096  -3.2016  -3.1992  -3.1884  -3.1799
    -3.1784  -3.1726  -3.1715  -3.1678  -3.1663  -3.1586  -3.1575  -3.1453
    -3.1451  -3.1210  -3.1206  -3.1100  -3.0977  -3.0900  -3.0838  -3.0574
    -3.0407  -3.0394  -3.0339  -3.0327  -3.0256  -3.0233  -3.0225  -3.0175
    -3.0167  -3.0157  -3.0150  -3.0085  -3.0018  -3.0009  -2.9887  -2.9842
    -2.9812  -2.9802  -2.9795  -2.9744  -2.9743  -2.9705  -2.9680  -2.9503
    -2.9145  -2.9125  -2.8895  -2.8752  -2.8736  -2.8618  -2.8591  -2.8487
    -2.8470  -2.8274  -2.8214  -2.8199  -2.7991  -2.7956  -2.7950  -2.7825
    -2.7791  -2.7748  -2.7668  -2.7635  -2.7496  -2.7486  -2.7462  -2.7415
    -2.7227  -2.7219  -2.7201  -2.7174  -2.6622  -2.6537  -2.6456  -2.6361
    -2.6290  -2.6255  -2.6209  -2.5950  -2.5795  -2.5692  -2.5668  -2.5663
    -2.5629  -2.5585  -2.5525  -2.5402  -2.5275  -2.5246  -2.5189  -2.5155
    -2.5084  -2.5066  -2.5005  -2.4923  -2.4893  -2.4857  -2.4798  -2.4787
    -2.4726  -2.4718  -2.4659  -2.4651  -2.4592  -2.4485  -2.4347  -2.4341
    -2.4059  -2.3995  -2.3977  -2.3737  -2.3697  -2.3626  -2.3553  -2.3552
    -2.3481  -2.3447  -2.3350  -2.3318  -2.3147  -2.2998  -2.2922  -2.2713
    -2.2679  -2.2661  -2.2631  -2.2482  -2.2427  -2.2330  -2.2311  -2.2145
    -2.2120  -2.2049  -2.2047  -2.1973  -2.1965  -2.1777  -2.1443  -2.1355
    -2.1298  -2.1052  -2.1018  -2.0842  -2.0669  -2.0479  -2.0469  -2.0436
    -2.0368  -2.0313  -2.0017  -1.9977  -1.9942  -1.9635  -1.9601  -1.9567
    -1.9555  -1.9513  -1.9475  -1.9447  -1.9387  -1.9382  -1.9364  -1.9303
    -1.9293  -1.9270  -1.9165  -1.9116  -1.9072  -1.9014  -1.8641  -1.8551
    -1.8544  -1.8380  -1.8304  -1.8267  -1.8226  -1.8165  -1.8155  -1.8130
    -1.8109  -1.8008  -1.7996  -1.7984  -1.7928  -1.7659  -1.7590  -1.7580
    -1.7569  -1.7477  -1.7426  -1.7419  -1.7360  -1.7359  -1.7260  -1.7233
    -1.7057  -1.7041  -1.6983  -1.6973  -1.6875  -1.6739  -1.6696  -1.6652
    -1.6629  -1.6581  -1.6502  -1.6282  -1.6125  -1.6032  -1.5988  -1.5969
    -1.5786  -1.5754  -1.5749  -1.5734  -1.5596  -1.5442  -1.5038  -1.4986
    -1.4921  -1.4875  -1.4794  -1.4785  -1.4701  -1.4667  -1.4593  -1.4575
    -1.4505  -1.4438  -1.4330  -1.4319  -1.4256  -1.4127  -1.4121  -1.4068
    -1.3991  -1.3811  -1.3712  -1.3679  -1.3624  -1.3574  -1.3448  -1.3390
    -1.3272  -1.3251  -1.3213  -1.3068  -1.3020  -1.2971  -1.2927  -1.2867
    -1.2866  -1.2773  -1.2760  -1.2665  -1.2640  -1.2548  -1.2531  -1.2491
    -1.2411  -1.2391  -1.2274  -1.2270  -1.2194  -1.2187  -1.2186  -1.2183
    -1.2148  -1.2082  -1.2054  -1.1774  -1.1761  -1.1701  -1.1560  -1.1548
    -1.1444  -1.1396  -1.1373  -1.1330  -1.1295  -1.1245  -1.1239  -1.1212
    -1.1183  -1.1070  -1.1054  -1.0979  -1.0868  -1.0823  -1.0794  -1.0775
    -1.0766  -1.0752  -1.0719  -1.0623  -1.0574  -1.0544  -1.0531  -1.0503
    -1.0496  -1.0436  -1.0039  -0.9805  -0.9692  -0.9644  -0.9517  -0.9367
    -0.9353  -0.9287  -0.9240  -0.9202  -0.9155  -0.9072  -0.8997  -0.8814
    -0.8775  -0.8609  -0.8295  -0.8275  -0.8254  -0.7653  -0.6676  -0.6311
    -0.6010  -0.5940  -0.5462  -0.4523  -0.3791  -0.1930  -0.1596  -0.1184
    -0.0030   0.0227   0.0578   0.1558   0.1626   0.1925   0.2711   0.2888
     0.3161   0.3352   0.5892   0.5927   0.6436   0.6724   0.7325   0.7788
     0.8032   0.8041   0.9246   0.9712   0.9837   1.1559   1.1645   1.1990
     1.3023   1.3268   1.3638   1.3881   1.4801   1.5218   1.5263   1.7960
     1.8687   1.8796   1.8977   1.9005   1.9106   1.9757   1.9826   2.0320
     2.0621   2.0739   2.1949   2.4016   2.4068   2.4089   2.4474   2.4519
     2.6437   2.6545   2.6781   2.7104   2.7221   2.7967   2.8421   3.1815
     3.2040   3.2184   3.2822   3.3300   3.3647   3.3784   3.5448   3.5480
     3.5705   3.6175   3.6264   3.7998   3.8069   3.8944   3.9035   4.0009
     4.0231   4.1248   4.1809   4.2444   4.2479   4.2709   4.3023   4.3979
     4.4726   4.4979   4.5216   4.5654   4.6636   4.8057   4.8120   4.8415
     4.8503   4.8528   4.8944   4.9675   4.9895   5.0746   5.0912   5.1950
     5.2020   5.2124   5.2386   5.2624   5.3016   5.4406   5.4929   5.5261
     5.5332   5.5336   5.5449   5.6504   5.6727   5.7199   5.7323   5.8373
     5.8528   5.8742   5.8962   5.9062   5.9069   5.9798   5.9918   6.0164
     6.0175   6.0270   6.0325   6.0428   6.0868   6.1387   6.1415   6.1481
     6.1662   6.2227   6.2288   6.3075   6.4021   6.4088   6.4468   6.4479
     6.4735   6.5154   6.5242   6.5721   6.5883   6.6328   6.6405   6.6545
     6.6606   6.6913   6.7358   6.7486   6.7685   6.8234   6.8286   6.9305
     6.9364   6.9719   6.9732   6.9985   7.0280   7.0640   7.1002   7.1086
     7.1289   7.1633   7.1912   7.1918   7.2002   7.2028   7.2801   7.2906
     7.3061   7.3552   7.3597   7.4030   7.4176   7.4339   7.4639   7.5091
     7.5613   7.5681   7.6068   7.6174   7.6579   7.6581   7.6663   7.6698
     7.6926   7.6943   7.7177   7.7234   7.7374   7.7425   7.7923   7.8307
     7.8584   7.8676   7.8732   7.9400   7.9891   7.9962   8.0021   8.0254

          k =-0.2500 0.5057 0.0000 ( 95386 PWs)   bands (ev):

    -8.0043  -7.7849  -7.3689  -7.1559  -6.9583  -6.8860  -6.8070  -6.6741
    -6.6103  -6.2895  -6.2189  -6.1885  -6.1045  -6.0368  -5.9297  -5.9274
    -5.8882  -5.8386  -5.8305  -5.8244  -5.7934  -5.7355  -5.7235  -5.6809
    -5.6670  -5.6490  -5.6449  -5.6396  -5.5493  -5.5379  -5.5304  -5.5222
    -5.5159  -5.5067  -5.4887  -5.4807  -5.4624  -5.4590  -5.4277  -5.3747
    -5.3685  -5.3532  -5.3510  -5.3166  -5.3094  -5.2933  -5.2907  -5.2332
    -5.2322  -5.2321  -5.2277  -5.2178  -5.1992  -5.1781  -5.1549  -5.1441
    -5.1293  -5.1239  -5.1152  -5.1136  -5.1100  -5.1087  -5.0875  -5.0670
    -5.0642  -5.0565  -5.0554  -5.0483  -5.0402  -5.0371  -5.0299  -4.9872
    -4.9815  -4.9664  -4.9632  -4.9476  -4.9337  -4.9319  -4.9283  -4.9263
    -4.9171  -4.9154  -4.9064  -4.9034  -4.8853  -4.8848  -4.8812  -4.8713
    -4.8713  -4.8616  -4.8590  -4.8482  -4.8275  -4.8264  -4.8242  -4.8215
    -4.7413  -4.7387  -4.7371  -4.7362  -4.7323  -4.7250  -4.7206  -4.7203
    -4.7197  -4.7115  -4.6990  -4.6842  -4.6737  -4.6160  -4.5995  -4.5965
    -4.5928  -4.5845  -4.5619  -4.5605  -4.5568  -4.5262  -4.4700  -4.4690
    -4.4503  -4.4132  -4.3974  -4.3946  -4.3930  -4.3926  -4.3911  -4.3848
    -4.3548  -4.3451  -4.3445  -4.3365  -4.3250  -4.3224  -4.3196  -4.3030
    -4.3015  -4.2733  -4.2639  -4.2568  -4.2471  -4.2446  -4.2288  -4.2100
    -4.1932  -4.1673  -4.1556  -4.1545  -4.1540  -4.1525  -4.1477  -4.1389
    -4.1367  -4.1039  -4.0966  -4.0829  -4.0769  -4.0757  -4.0693  -4.0538
    -4.0500  -4.0347  -4.0301  -4.0235  -4.0207  -4.0166  -4.0079  -3.9933
    -3.9862  -3.9701  -3.9580  -3.9269  -3.9134  -3.8980  -3.8925  -3.8890
    -3.8704  -3.8701  -3.8605  -3.8368  -3.8360  -3.8324  -3.8159  -3.8078
    -3.7854  -3.7795  -3.7386  -3.7352  -3.7259  -3.7235  -3.7143  -3.7096
    -3.7004  -3.6847  -3.6801  -3.6706  -3.6583  -3.6399  -3.6186  -3.6186
    -3.6167  -3.6156  -3.6050  -3.6012  -3.5985  -3.5946  -3.5911  -3.5791
    -3.5692  -3.5664  -3.5639  -3.5589  -3.5569  -3.5503  -3.5453  -3.5442
    -3.5429  -3.5336  -3.5230  -3.4917  -3.4817  -3.4557  -3.4534  -3.4423
    -3.4419  -3.4399  -3.4386  -3.4255  -3.4208  -3.4121  -3.4045  -3.3964
    -3.3873  -3.3791  -3.3734  -3.3714  -3.3697  -3.3689  -3.3637  -3.3557
    -3.3519  -3.3368  -3.3350  -3.3263  -3.3255  -3.3238  -3.3194  -3.3165
    -3.3128  -3.3124  -3.3085  -3.3080  -3.2991  -3.2963  -3.2913  -3.2855
    -3.2808  -3.2789  -3.2585  -3.2491  -3.2462  -3.2432  -3.2375  -3.2282
    -3.2191  -3.2183  -3.2136  -3.2096  -3.2016  -3.1992  -3.1884  -3.1799
    -3.1784  -3.1726  -3.1715  -3.1678  -3.1663  -3.1586  -3.1575  -3.1453
    -3.1451  -3.1210  -3.1206  -3.1100  -3.0977  -3.0900  -3.0838  -3.0574
    -3.0407  -3.0394  -3.0339  -3.0327  -3.0256  -3.0233  -3.0225  -3.0175
    -3.0167  -3.0157  -3.0150  -3.0085  -3.0018  -3.0009  -2.9888  -2.9843
    -2.9812  -2.9801  -2.9794  -2.9744  -2.9744  -2.9705  -2.9680  -2.9503
    -2.9145  -2.9125  -2.8895  -2.8752  -2.8736  -2.8618  -2.8591  -2.8487
    -2.8470  -2.8274  -2.8214  -2.8199  -2.7991  -2.7956  -2.7950  -2.7825
    -2.7791  -2.7748  -2.7668  -2.7635  -2.7496  -2.7486  -2.7462  -2.7415
    -2.7227  -2.7219  -2.7201  -2.7174  -2.6622  -2.6537  -2.6456  -2.6361
    -2.6290  -2.6255  -2.6209  -2.5950  -2.5795  -2.5692  -2.5668  -2.5663
    -2.5629  -2.5584  -2.5525  -2.5402  -2.5275  -2.5246  -2.5189  -2.5155
    -2.5084  -2.5066  -2.5006  -2.4923  -2.4893  -2.4857  -2.4799  -2.4787
    -2.4726  -2.4718  -2.4659  -2.4651  -2.4592  -2.4485  -2.4347  -2.4341
    -2.4059  -2.3995  -2.3977  -2.3737  -2.3697  -2.3626  -2.3553  -2.3552
    -2.3481  -2.3447  -2.3350  -2.3318  -2.3147  -2.2998  -2.2922  -2.2713
    -2.2679  -2.2661  -2.2631  -2.2482  -2.2427  -2.2330  -2.2311  -2.2145
    -2.2120  -2.2049  -2.2047  -2.1973  -2.1965  -2.1777  -2.1443  -2.1355
    -2.1298  -2.1052  -2.1018  -2.0842  -2.0669  -2.0479  -2.0469  -2.0436
    -2.0368  -2.0313  -2.0017  -1.9977  -1.9942  -1.9635  -1.9601  -1.9567
    -1.9555  -1.9513  -1.9475  -1.9447  -1.9387  -1.9382  -1.9364  -1.9303
    -1.9293  -1.9269  -1.9165  -1.9116  -1.9072  -1.9014  -1.8641  -1.8551
    -1.8544  -1.8380  -1.8304  -1.8267  -1.8226  -1.8165  -1.8155  -1.8130
    -1.8109  -1.8008  -1.7996  -1.7984  -1.7928  -1.7659  -1.7590  -1.7580
    -1.7569  -1.7477  -1.7426  -1.7419  -1.7360  -1.7359  -1.7260  -1.7233
    -1.7057  -1.7041  -1.6983  -1.6973  -1.6875  -1.6738  -1.6696  -1.6652
    -1.6629  -1.6581  -1.6502  -1.6282  -1.6125  -1.6032  -1.5988  -1.5969
    -1.5786  -1.5754  -1.5749  -1.5734  -1.5596  -1.5442  -1.5038  -1.4986
    -1.4921  -1.4875  -1.4794  -1.4785  -1.4700  -1.4667  -1.4593  -1.4575
    -1.4505  -1.4438  -1.4330  -1.4319  -1.4256  -1.4127  -1.4121  -1.4068
    -1.3991  -1.3811  -1.3712  -1.3679  -1.3624  -1.3574  -1.3448  -1.3390
    -1.3272  -1.3251  -1.3213  -1.3068  -1.3020  -1.2971  -1.2927  -1.2867
    -1.2866  -1.2773  -1.2760  -1.2665  -1.2640  -1.2548  -1.2531  -1.2491
    -1.2411  -1.2391  -1.2274  -1.2270  -1.2194  -1.2187  -1.2186  -1.2183
    -1.2148  -1.2082  -1.2054  -1.1774  -1.1761  -1.1701  -1.1560  -1.1548
    -1.1444  -1.1396  -1.1373  -1.1330  -1.1295  -1.1245  -1.1239  -1.1212
    -1.1183  -1.1070  -1.1054  -1.0979  -1.0868  -1.0823  -1.0794  -1.0775
    -1.0766  -1.0752  -1.0719  -1.0623  -1.0574  -1.0544  -1.0531  -1.0503
    -1.0496  -1.0436  -1.0039  -0.9805  -0.9692  -0.9644  -0.9517  -0.9368
    -0.9352  -0.9287  -0.9240  -0.9202  -0.9155  -0.9072  -0.8997  -0.8814
    -0.8775  -0.8609  -0.8295  -0.8275  -0.8254  -0.7653  -0.6676  -0.6311
    -0.6010  -0.5940  -0.5462  -0.4523  -0.3791  -0.1930  -0.1596  -0.1184
    -0.0030   0.0227   0.0578   0.1558   0.1626   0.1925   0.2711   0.2888
     0.3161   0.3352   0.5892   0.5927   0.6436   0.6724   0.7325   0.7788
     0.8032   0.8040   0.9246   0.9712   0.9837   1.1559   1.1645   1.1990
     1.3023   1.3268   1.3638   1.3881   1.4801   1.5218   1.5263   1.7960
     1.8687   1.8796   1.8977   1.9005   1.9106   1.9757   1.9826   2.0320
     2.0621   2.0739   2.1949   2.4016   2.4068   2.4089   2.4474   2.4519
     2.6437   2.6545   2.6781   2.7104   2.7221   2.7967   2.8421   3.1815
     3.2040   3.2184   3.2822   3.3300   3.3647   3.3784   3.5448   3.5480
     3.5705   3.6175   3.6264   3.7998   3.8069   3.8944   3.9035   4.0009
     4.0231   4.1248   4.1809   4.2444   4.2479   4.2709   4.3023   4.3979
     4.4726   4.4979   4.5216   4.5654   4.6636   4.8057   4.8120   4.8415
     4.8503   4.8529   4.8944   4.9675   4.9895   5.0746   5.0912   5.1950
     5.2020   5.2124   5.2386   5.2624   5.3016   5.4406   5.4929   5.5261
     5.5332   5.5336   5.5449   5.6504   5.6727   5.7199   5.7323   5.8373
     5.8528   5.8742   5.8962   5.9062   5.9069   5.9798   5.9918   6.0164
     6.0175   6.0270   6.0325   6.0428   6.0868   6.1387   6.1415   6.1481
     6.1662   6.2227   6.2288   6.3075   6.4021   6.4088   6.4468   6.4479
     6.4735   6.5154   6.5243   6.5721   6.5883   6.6328   6.6405   6.6545
     6.6606   6.6913   6.7358   6.7486   6.7685   6.8234   6.8286   6.9305
     6.9364   6.9719   6.9732   6.9985   7.0280   7.0640   7.1002   7.1086
     7.1289   7.1633   7.1912   7.1918   7.2002   7.2028   7.2801   7.2906
     7.3061   7.3552   7.3597   7.4030   7.4176   7.4339   7.4639   7.5091
     7.5613   7.5681   7.6068   7.6174   7.6579   7.6581   7.6663   7.6698
     7.6926   7.6943   7.7177   7.7234   7.7374   7.7425   7.7923   7.8307
     7.8584   7.8676   7.8732   7.9400   7.9891   7.9962   8.0021   8.0254

     the Fermi energy is     0.7850 ev

!    total energy              =  -11427.09402107 Ry
     Harris-Foulkes estimate   =  -11427.09402177 Ry
     estimated scf accuracy    <       0.00000072 Ry

     The total energy is the sum of the following terms:

     one-electron contribution = -129707.69122158 Ry
     hartree contribution      =   65677.87516013 Ry
     xc contribution           =   -5523.82337084 Ry
     ewald contribution        =   58126.48229572 Ry
     smearing contrib. (-TS)   =       0.06311550 Ry

     convergence has been achieved in  56 iterations

     negative rho (up, down):  3.085E+00 0.000E+00

     Forces acting on atoms (cartesian axes, Ry/au):

     atom    1 type  1   force =    -0.00111142    0.00019062    0.00837586
     atom    2 type  1   force =    -0.00111260   -0.00026159    0.00809959
     atom    3 type  1   force =    -0.00018641    0.00026266    0.00903477
     atom    4 type  1   force =    -0.00017543   -0.00019957    0.00874135
     atom    5 type  1   force =     0.00014476    0.00029680    0.00907376
     atom    6 type  1   force =     0.00014635   -0.00017490    0.00879734
     atom    7 type  1   force =     0.00001322    0.00027227    0.00898740
     atom    8 type  1   force =     0.00001308   -0.00019377    0.00871041
     atom    9 type  1   force =     0.00018561    0.00025570    0.00895903
     atom   10 type  1   force =     0.00016751   -0.00017000    0.00866652
     atom   11 type  1   force =    -0.00010917    0.00025690    0.00899768
     atom   12 type  1   force =    -0.00011188   -0.00014880    0.00871235
     atom   13 type  1   force =     0.00069326    0.00030243    0.00881859
     atom   14 type  1   force =     0.00070119   -0.00014323    0.00852019
     atom   15 type  1   force =    -0.00142259    0.00042927   -0.00534277
     atom   16 type  1   force =    -0.00141626   -0.00009595   -0.00546476
     atom   17 type  1   force =    -0.00019226    0.00040474   -0.00540052
     atom   18 type  1   force =    -0.00018726   -0.00013451   -0.00552162
     atom   19 type  1   force =     0.00016522    0.00041952   -0.00538984
     atom   20 type  1   force =     0.00015044   -0.00012567   -0.00550672
     atom   21 type  1   force =    -0.00001977    0.00042794   -0.00535602
     atom   22 type  1   force =    -0.00001003   -0.00012585   -0.00548023
     atom   23 type  1   force =     0.00020576    0.00042416   -0.00532641
     atom   24 type  1   force =     0.00021733   -0.00012691   -0.00543279
     atom   25 type  1   force =    -0.00014205    0.00041117   -0.00533595
     atom   26 type  1   force =    -0.00014393   -0.00012264   -0.00543477
     atom   27 type  1   force =     0.00089957    0.00040199   -0.00532105
     atom   28 type  1   force =     0.00089555   -0.00010966   -0.00543321
     atom   29 type  1   force =    -0.00068053   -0.00010193    0.00860409
     atom   30 type  1   force =    -0.00068056   -0.00049963    0.00866649
     atom   31 type  1   force =    -0.00001323   -0.00011730    0.00881039
     atom   32 type  1   force =    -0.00001642   -0.00053440    0.00888255
     atom   33 type  1   force =     0.00020734   -0.00012777    0.00873408
     atom   34 type  1   force =     0.00020579   -0.00054164    0.00880429
     atom   35 type  1   force =     0.00008569   -0.00010936    0.00872657
     atom   36 type  1   force =     0.00011318   -0.00053858    0.00881142
     atom   37 type  1   force =    -0.00007038   -0.00012581    0.00866605
     atom   38 type  1   force =    -0.00007093   -0.00052199    0.00874044
     atom   39 type  1   force =     0.00005893   -0.00015232    0.00872919
     atom   40 type  1   force =     0.00004081   -0.00053785    0.00879217
     atom   41 type  1   force =     0.00078956   -0.00021196    0.00804965
     atom   42 type  1   force =     0.00077615   -0.00060907    0.00812907
     atom   43 type  1   force =    -0.00083633   -0.00012675   -0.00539530
     atom   44 type  1   force =    -0.00084791   -0.00058655   -0.00536662
     atom   45 type  1   force =    -0.00002264   -0.00013297   -0.00544675
     atom   46 type  1   force =    -0.00001447   -0.00060192   -0.00542017
     atom   47 type  1   force =     0.00024640   -0.00013821   -0.00540721
     atom   48 type  1   force =     0.00024566   -0.00058900   -0.00538935
     atom   49 type  1   force =     0.00009752   -0.00013553   -0.00537323
     atom   50 type  1   force =     0.00010480   -0.00058887   -0.00534156
     atom   51 type  1   force =    -0.00008967   -0.00012428   -0.00537110
     atom   52 type  1   force =    -0.00008356   -0.00059143   -0.00532835
     atom   53 type  1   force =     0.00005541   -0.00014386   -0.00538545
     atom   54 type  1   force =     0.00005835   -0.00060885   -0.00534693
     atom   55 type  1   force =     0.00104617   -0.00010069   -0.00537278
     atom   56 type  1   force =     0.00104543   -0.00055097   -0.00535442
     atom   57 type  1   force =    -0.00102251    0.00071053   -0.00839531
     atom   58 type  1   force =    -0.00101167    0.00022345   -0.00806760
     atom   59 type  1   force =    -0.00013434    0.00065783   -0.00906452
     atom   60 type  1   force =    -0.00011175    0.00016696   -0.00871321
     atom   61 type  1   force =     0.00008931    0.00063081   -0.00909993
     atom   62 type  1   force =     0.00007199    0.00012593   -0.00875519
     atom   63 type  1   force =    -0.00009869    0.00065165   -0.00899627
     atom   64 type  1   force =    -0.00008933    0.00015287   -0.00865662
     atom   65 type  1   force =     0.00009766    0.00065563   -0.00896265
     atom   66 type  1   force =     0.00011241    0.00014019   -0.00861405
     atom   67 type  1   force =    -0.00008363    0.00065316   -0.00899950
     atom   68 type  1   force =    -0.00010292    0.00013210   -0.00865909
     atom   69 type  1   force =     0.00078200    0.00061768   -0.00881814
     atom   70 type  1   force =     0.00076279    0.00010118   -0.00848733
     atom   71 type  1   force =    -0.00079340    0.00077362    0.00512528
     atom   72 type  1   force =    -0.00079652    0.00019972    0.00528258
     atom   73 type  1   force =    -0.00002489    0.00080111    0.00511984
     atom   74 type  1   force =    -0.00002112    0.00019071    0.00528022
     atom   75 type  1   force =     0.00020377    0.00078886    0.00514470
     atom   76 type  1   force =     0.00019815    0.00018459    0.00532127
     atom   77 type  1   force =     0.00003833    0.00079556    0.00521715
     atom   78 type  1   force =     0.00004688    0.00018262    0.00539173
     atom   79 type  1   force =    -0.00009912    0.00078892    0.00529186
     atom   80 type  1   force =    -0.00010137    0.00019210    0.00545218
     atom   81 type  1   force =     0.00008680    0.00078999    0.00529317
     atom   82 type  1   force =     0.00007177    0.00020430    0.00545615
     atom   83 type  1   force =     0.00109446    0.00072752    0.00520160
     atom   84 type  1   force =     0.00108719    0.00017101    0.00538136
     atom   85 type  1   force =    -0.00136236    0.00004292    0.00532385
     atom   86 type  1   force =    -0.00137799   -0.00073445    0.00548785
     atom   87 type  1   force =    -0.00016276    0.00008699    0.00530668
     atom   88 type  1   force =    -0.00017941   -0.00071328    0.00545904
     atom   89 type  1   force =     0.00011853    0.00007701    0.00527981
     atom   90 type  1   force =     0.00013557   -0.00072387    0.00544707
     atom   91 type  1   force =    -0.00005894    0.00006734    0.00535171
     atom   92 type  1   force =    -0.00006442   -0.00072487    0.00551483
     atom   93 type  1   force =     0.00018094    0.00007519    0.00543182
     atom   94 type  1   force =     0.00016516   -0.00073372    0.00560130
     atom   95 type  1   force =    -0.00014173    0.00008410    0.00545739
     atom   96 type  1   force =    -0.00013126   -0.00071939    0.00564209
     atom   97 type  1   force =     0.00093142    0.00007505    0.00539739
     atom   98 type  1   force =     0.00094026   -0.00070461    0.00556916
     atom   99 type  1   force =    -0.00058463    0.00010161   -0.00855857
     atom  100 type  1   force =    -0.00058719   -0.00028536   -0.00864733
     atom  101 type  1   force =    -0.00001484    0.00013712   -0.00877517
     atom  102 type  1   force =    -0.00002407   -0.00026877   -0.00886410
     atom  103 type  1   force =     0.00011297    0.00014114   -0.00869469
     atom  104 type  1   force =     0.00011515   -0.00024927   -0.00876900
     atom  105 type  1   force =    -0.00000384    0.00012498   -0.00867247
     atom  106 type  1   force =    -0.00000969   -0.00027139   -0.00875025
     atom  107 type  1   force =    -0.00008646    0.00015563   -0.00861046
     atom  108 type  1   force =    -0.00008307   -0.00027488   -0.00869001
     atom  109 type  1   force =     0.00008300    0.00014763   -0.00867313
     atom  110 type  1   force =     0.00008306   -0.00026137   -0.00874402
     atom  111 type  1   force =     0.00086640    0.00021242   -0.00801311
     atom  112 type  1   force =     0.00087960   -0.00014813   -0.00807279

     Total force =     0.076816     Total SCF correction =     0.004901

     Writing output data file ./ausurf.save/
 
     init_run     :      6.74s CPU      7.05s WALL (       1 calls)
     electrons    :    745.71s CPU    765.43s WALL (       1 calls)
     forces       :      1.83s CPU      1.92s WALL (       1 calls)

     Called by init_run:
     wfcinit      :      4.80s CPU      4.97s WALL (       1 calls)
     potinit      :      0.12s CPU      0.15s WALL (       1 calls)
     hinit0       :      0.69s CPU      0.71s WALL (       1 calls)

     Called by electrons:
     c_bands      :    667.27s CPU    684.40s WALL (      57 calls)
     sum_band     :     72.51s CPU     74.45s WALL (      57 calls)
     v_of_rho     :      2.85s CPU      2.99s WALL (      57 calls)
     newd         :      1.58s CPU      1.83s WALL (      57 calls)
     mix_rho      :      0.78s CPU      0.79s WALL (      57 calls)

     Called by c_bands:
     init_us_2    :      0.58s CPU      0.62s WALL (     232 calls)
     cegterg      :    663.92s CPU    680.62s WALL (     114 calls)

     Called by sum_band:
     sum_band:bec :      1.49s CPU      1.50s WALL (     114 calls)
     addusdens    :      0.98s CPU      1.29s WALL (      57 calls)

     Called by *egterg:
     h_psi        :    281.74s CPU    287.84s WALL (     456 calls)
     s_psi        :     17.69s CPU     17.85s WALL (     456 calls)
     g_psi        :      0.17s CPU      0.17s WALL (     340 calls)
     cdiaghg      :    264.96s CPU    272.12s WALL (     452 calls)

     Called by h_psi:
     h_psi:calbec :     33.36s CPU     34.45s WALL (     456 calls)
     vloc_psi     :    229.98s CPU    234.32s WALL (     456 calls)
     add_vuspsi   :     18.09s CPU     18.65s WALL (     456 calls)

     General routines
     calbec       :     49.44s CPU     51.10s WALL (     578 calls)
     fft          :      4.47s CPU      4.54s WALL (     751 calls)
     ffts         :      0.57s CPU      0.58s WALL (     114 calls)
     fftw         :    277.03s CPU    282.30s WALL (  490298 calls)
     interpolate  :      0.61s CPU      0.61s WALL (      57 calls)
 
     Parallel routines
     fft_scatt_xy :      7.91s CPU      8.04s WALL (  491163 calls)
     fft_scatt_yz :    246.21s CPU    251.09s WALL (  491163 calls)
 
     PWSCF        :  13m 8.06s CPU  14m23.34s WALL

 
   This run was terminated on:  13:22:50  16Jul2020            

=------------------------------------------------------------------------------=
   JOB DONE.
=------------------------------------------------------------------------------=
