
     Program PWSCF v.6.5 starts on 16Jul2020 at 14:11:35 

     This program is part of the open-source Quantum ESPRESSO suite
     for quantum simulation of materials; please cite
         "P. Giannozzi et al., J. Phys.:Condens. Matter 21 395502 (2009);
         "P. Giannozzi et al., J. Phys.:Condens. Matter 29 465901 (2017);
          URL http://www.quantum-espresso.org", 
     in publications or presentations arising from this work. More details at
     http://www.quantum-espresso.org/quote

     Parallel version (MPI & OpenMP), running on     288 processor cores
     Number of MPI processes:               288
     Threads/MPI process:                     1

     MPI processes distributed on     8 nodes
     R & G space division:  proc/nbgrp/npool/nimage =     288
     Reading input from ausurf.in

     Current dimensions of program PWSCF are:
     Max number of different atomic species (ntypx) = 10
     Max number of k-points (npk) =  40000
     Max angular momentum in pseudopotentials (lmaxx) =  3

     Subspace diagonalization in iterative solution of the eigenvalue problem:
     one sub-group per band group will be used
     scalapack distributed-memory algorithm (size of sub-group: 16* 16 procs)

 
     Parallelization info
     --------------------
     sticks:   dense  smooth     PW     G-vecs:    dense   smooth      PW
     Min          41      20      5                 7483     2640     343
     Max          42      21      6                 7505     2663     358
     Sum       11837    5915   1537              2158381   763307  100747
 

     Title: 
      DEISA pw benchmark                                                        


     bravais-lattice index     =            8
     lattice parameter (alat)  =      38.7583  a.u.
     unit-cell volume          =   45191.4962 (a.u.)^3
     number of atoms/cell      =          112
     number of atomic types    =            1
     number of electrons       =      1232.00
     number of Kohn-Sham states=          800
     kinetic-energy cutoff     =      25.0000  Ry
     charge density cutoff     =     200.0000  Ry
     convergence threshold     =      1.0E-06
     mixing beta               =       0.7000
     number of iterations used =            8  plain     mixing
     Exchange-correlation=  SLA  PW   PBE  PBE
                           (   1   4   3   4   0   0   0)

     celldm(1)=  38.758300  celldm(2)=   0.494393  celldm(3)=   1.569966
     celldm(4)=   0.000000  celldm(5)=   0.000000  celldm(6)=   0.000000

     crystal axes: (cart. coord. in units of alat)
               a(1) = (   1.000000   0.000000   0.000000 )  
               a(2) = (   0.000000   0.494393   0.000000 )  
               a(3) = (   0.000000   0.000000   1.569966 )  

     reciprocal axes: (cart. coord. in units 2 pi/alat)
               b(1) = (  1.000000  0.000000  0.000000 )  
               b(2) = (  0.000000  2.022682  0.000000 )  
               b(3) = (  0.000000  0.000000  0.636956 )  


     PseudoPot. # 1 for Au read from file:
     ./Au.pbe-nd-van.UPF
     MD5 check sum: deb5c07af10777505a79e28f5b4b4115
     Pseudo is Ultrasoft + core correction, Zval = 11.0
     Generated by new atomic code, or converted to UPF format
     Using radial grid of  985 points,  3 beta functions with: 
                l(1) =   1
                l(2) =   2
                l(3) =   2
     Q(r) pseudized with  8 coefficients,  rinner =    1.100   1.100   1.100
                                                       1.100   1.100

     atomic species   valence    mass     pseudopotential
        AU            11.00   196.96000     Au( 1.00)

     No symmetry found



   Cartesian axes

     site n.     atom                  positions (alat units)
         1           AU  tau(   1) = (   1.4278395   1.9784974   0.3497317  )
         2           AU  tau(   2) = (   1.4278395   1.7313987   0.3497317  )
         3           AU  tau(   3) = (   1.5706478   1.9784974   0.3497317  )
         4           AU  tau(   4) = (   1.5706478   1.7313987   0.3497317  )
         5           AU  tau(   5) = (   1.7134072   1.9784974   0.3497317  )
         6           AU  tau(   6) = (   1.7134072   1.7313987   0.3497317  )
         7           AU  tau(   7) = (   1.8562156   1.9784974   0.3497317  )
         8           AU  tau(   8) = (   1.8562156   1.7313987   0.3497317  )
         9           AU  tau(   9) = (   1.9989753   1.9784974   0.3497317  )
        10           AU  tau(  10) = (   1.9989753   1.7313987   0.3497317  )
        11           AU  tau(  11) = (   2.1417836   1.9784974   0.3497317  )
        12           AU  tau(  12) = (   2.1417836   1.7313987   0.3497317  )
        13           AU  tau(  13) = (   2.2845431   1.9784974   0.3497317  )
        14           AU  tau(  14) = (   2.2845431   1.7313987   0.3497317  )
        15           AU  tau(  15) = (   1.4278395   2.0609450   0.2331545  )
        16           AU  tau(  16) = (   1.4278395   1.8138461   0.2331545  )
        17           AU  tau(  17) = (   1.5706478   2.0609450   0.2331545  )
        18           AU  tau(  18) = (   1.5706478   1.8138461   0.2331545  )
        19           AU  tau(  19) = (   1.7134072   2.0609450   0.2331545  )
        20           AU  tau(  20) = (   1.7134072   1.8138461   0.2331545  )
        21           AU  tau(  21) = (   1.8562156   2.0609450   0.2331545  )
        22           AU  tau(  22) = (   1.8562156   1.8138461   0.2331545  )
        23           AU  tau(  23) = (   1.9989753   2.0609450   0.2331545  )
        24           AU  tau(  24) = (   1.9989753   1.8138461   0.2331545  )
        25           AU  tau(  25) = (   2.1417836   2.0609450   0.2331545  )
        26           AU  tau(  26) = (   2.1417836   1.8138461   0.2331545  )
        27           AU  tau(  27) = (   2.2845431   2.0609450   0.2331545  )
        28           AU  tau(  28) = (   2.2845431   1.8138461   0.2331545  )
        29           AU  tau(  29) = (   1.4992193   2.1021445   0.3497317  )
        30           AU  tau(  30) = (   1.4992193   1.8550456   0.3497317  )
        31           AU  tau(  31) = (   1.6420276   2.1021445   0.3497317  )
        32           AU  tau(  32) = (   1.6420276   1.8550456   0.3497317  )
        33           AU  tau(  33) = (   1.7847871   2.1021445   0.3497317  )
        34           AU  tau(  34) = (   1.7847871   1.8550456   0.3497317  )
        35           AU  tau(  35) = (   1.9275954   2.1021445   0.3497317  )
        36           AU  tau(  36) = (   1.9275954   1.8550456   0.3497317  )
        37           AU  tau(  37) = (   2.0704038   2.1021445   0.3497317  )
        38           AU  tau(  38) = (   2.0704038   1.8550456   0.3497317  )
        39           AU  tau(  39) = (   2.2131632   2.1021445   0.3497317  )
        40           AU  tau(  40) = (   2.2131632   1.8550456   0.3497317  )
        41           AU  tau(  41) = (   2.3559716   2.1021445   0.3497317  )
        42           AU  tau(  42) = (   2.3559716   1.8550456   0.3497317  )
        43           AU  tau(  43) = (   1.4992193   1.6901992   0.2331545  )
        44           AU  tau(  44) = (   1.4992193   1.9374930   0.2331545  )
        45           AU  tau(  45) = (   1.6420276   1.6901992   0.2331545  )
        46           AU  tau(  46) = (   1.6420276   1.9374930   0.2331545  )
        47           AU  tau(  47) = (   1.7847871   1.6901992   0.2331545  )
        48           AU  tau(  48) = (   1.7847871   1.9374930   0.2331545  )
        49           AU  tau(  49) = (   1.9275954   1.6901992   0.2331545  )
        50           AU  tau(  50) = (   1.9275954   1.9374930   0.2331545  )
        51           AU  tau(  51) = (   2.0704038   1.6901992   0.2331545  )
        52           AU  tau(  52) = (   2.0704038   1.9374930   0.2331545  )
        53           AU  tau(  53) = (   2.2131632   1.6901992   0.2331545  )
        54           AU  tau(  54) = (   2.2131632   1.9374930   0.2331545  )
        55           AU  tau(  55) = (   2.3559716   1.6901992   0.2331545  )
        56           AU  tau(  56) = (   2.3559716   1.9374930   0.2331545  )
        57           AU  tau(  57) = (   1.4278395   1.9784974   0.0000000  )
        58           AU  tau(  58) = (   1.4278395   1.7313987   0.0000000  )
        59           AU  tau(  59) = (   1.5706478   1.9784974   0.0000000  )
        60           AU  tau(  60) = (   1.5706478   1.7313987   0.0000000  )
        61           AU  tau(  61) = (   1.7134072   1.9784974   0.0000000  )
        62           AU  tau(  62) = (   1.7134072   1.7313987   0.0000000  )
        63           AU  tau(  63) = (   1.8562156   1.9784974   0.0000000  )
        64           AU  tau(  64) = (   1.8562156   1.7313987   0.0000000  )
        65           AU  tau(  65) = (   1.9989753   1.9784974   0.0000000  )
        66           AU  tau(  66) = (   1.9989753   1.7313987   0.0000000  )
        67           AU  tau(  67) = (   2.1417836   1.9784974   0.0000000  )
        68           AU  tau(  68) = (   2.1417836   1.7313987   0.0000000  )
        69           AU  tau(  69) = (   2.2845431   1.9784974   0.0000000  )
        70           AU  tau(  70) = (   2.2845431   1.7313987   0.0000000  )
        71           AU  tau(  71) = (   1.4992193   2.0196968   0.1165772  )
        72           AU  tau(  72) = (   1.4992193   1.7725979   0.1165772  )
        73           AU  tau(  73) = (   1.6420276   2.0196968   0.1165772  )
        74           AU  tau(  74) = (   1.6420276   1.7725979   0.1165772  )
        75           AU  tau(  75) = (   1.7847871   2.0196968   0.1165772  )
        76           AU  tau(  76) = (   1.7847871   1.7725979   0.1165772  )
        77           AU  tau(  77) = (   1.9275954   2.0196968   0.1165772  )
        78           AU  tau(  78) = (   1.9275954   1.7725979   0.1165772  )
        79           AU  tau(  79) = (   2.0704038   2.0196968   0.1165772  )
        80           AU  tau(  80) = (   2.0704038   1.7725979   0.1165772  )
        81           AU  tau(  81) = (   2.2131632   2.0196968   0.1165772  )
        82           AU  tau(  82) = (   2.2131632   1.7725979   0.1165772  )
        83           AU  tau(  83) = (   2.3559716   2.0196968   0.1165772  )
        84           AU  tau(  84) = (   2.3559716   1.7725979   0.1165772  )
        85           AU  tau(  85) = (   1.4278395   2.1433437   0.1165772  )
        86           AU  tau(  86) = (   1.4278395   1.8962938   0.1165772  )
        87           AU  tau(  87) = (   1.5706478   2.1433437   0.1165772  )
        88           AU  tau(  88) = (   1.5706478   1.8962938   0.1165772  )
        89           AU  tau(  89) = (   1.7134072   2.1433437   0.1165772  )
        90           AU  tau(  90) = (   1.7134072   1.8962938   0.1165772  )
        91           AU  tau(  91) = (   1.8562156   2.1433437   0.1165772  )
        92           AU  tau(  92) = (   1.8562156   1.8962938   0.1165772  )
        93           AU  tau(  93) = (   1.9989753   2.1433437   0.1165772  )
        94           AU  tau(  94) = (   1.9989753   1.8962938   0.1165772  )
        95           AU  tau(  95) = (   2.1417836   2.1433437   0.1165772  )
        96           AU  tau(  96) = (   2.1417836   1.8962938   0.1165772  )
        97           AU  tau(  97) = (   2.2845431   2.1433437   0.1165772  )
        98           AU  tau(  98) = (   2.2845431   1.8962938   0.1165772  )
        99           AU  tau(  99) = (   1.4992193   2.1021445   0.0000000  )
       100           AU  tau( 100) = (   1.4992193   1.8550456   0.0000000  )
       101           AU  tau( 101) = (   1.6420276   2.1021445   0.0000000  )
       102           AU  tau( 102) = (   1.6420276   1.8550456   0.0000000  )
       103           AU  tau( 103) = (   1.7847871   2.1021445   0.0000000  )
       104           AU  tau( 104) = (   1.7847871   1.8550456   0.0000000  )
       105           AU  tau( 105) = (   1.9275954   2.1021445   0.0000000  )
       106           AU  tau( 106) = (   1.9275954   1.8550456   0.0000000  )
       107           AU  tau( 107) = (   2.0704038   2.1021445   0.0000000  )
       108           AU  tau( 108) = (   2.0704038   1.8550456   0.0000000  )
       109           AU  tau( 109) = (   2.2131632   2.1021445   0.0000000  )
       110           AU  tau( 110) = (   2.2131632   1.8550456   0.0000000  )
       111           AU  tau( 111) = (   2.3559716   2.1021445   0.0000000  )
       112           AU  tau( 112) = (   2.3559716   1.8550456   0.0000000  )

     number of k points=     2  Marzari-Vanderbilt smearing, width (Ry)=  0.0500
                       cart. coord. in units 2pi/alat
        k(    1) = (   0.2500000   0.5056706   0.0000000), wk =   1.0000000
        k(    2) = (  -0.2500000   0.5056706   0.0000000), wk =   1.0000000

     Dense  grid:  2158381 G-vectors     FFT dimensions: ( 180,  90, 288)

     Smooth grid:   763307 G-vectors     FFT dimensions: ( 125,  64, 200)

     Estimated max dynamical RAM per process >      93.76 MB

     Estimated total dynamical RAM >      26.37 GB

     Initial potential from superposition of free atoms

     starting charge 1230.69946, renormalised to 1232.00000

     negative rho (up, down):  3.043E+00 0.000E+00
     Starting wfcs are 1008 randomized atomic wfcs

     total cpu time spent up to now is        5.6 secs

     Self-consistent Calculation

     iteration #  1     ecut=    25.00 Ry     beta= 0.70
     Davidson diagonalization with overlap
     ethr =  1.00E-02,  avg # of iterations =  6.5

     Threshold (ethr) on eigenvalues was too large:
     Diagonalizing with lowered threshold

     Davidson diagonalization with overlap
     ethr =  4.50E-04,  avg # of iterations =  4.5

     negative rho (up, down):  2.992E+00 0.000E+00

     total cpu time spent up to now is       35.2 secs

     total energy              =  -11423.48359394 Ry
     Harris-Foulkes estimate   =  -11428.45009447 Ry
     estimated scf accuracy    <       6.33596629 Ry

     iteration #  2     ecut=    25.00 Ry     beta= 0.70
     Davidson diagonalization with overlap
     ethr =  5.14E-04,  avg # of iterations = 11.0

     negative rho (up, down):  2.993E+00 0.000E+00

     total cpu time spent up to now is       66.2 secs

     WARNING: integrated charge=  1232.02373307, expected=  1232.00000000

     total energy              =  -11408.18847107 Ry
     Harris-Foulkes estimate   =  -11440.31522928 Ry
     estimated scf accuracy    <     197.69270789 Ry

     iteration #  3     ecut=    25.00 Ry     beta= 0.70
     Davidson diagonalization with overlap
     ethr =  5.14E-04,  avg # of iterations =  6.0

     negative rho (up, down):  3.039E+00 0.000E+00

     total cpu time spent up to now is       89.4 secs

     WARNING: integrated charge=  1232.02468103, expected=  1232.00000000

     total energy              =  -11426.39501863 Ry
     Harris-Foulkes estimate   =  -11427.98485053 Ry
     estimated scf accuracy    <       5.30099791 Ry

     iteration #  4     ecut=    25.00 Ry     beta= 0.70
     Davidson diagonalization with overlap
     ethr =  4.30E-04,  avg # of iterations =  3.0

     negative rho (up, down):  3.046E+00 0.000E+00

     total cpu time spent up to now is      100.2 secs

     WARNING: integrated charge=  1232.02289589, expected=  1232.00000000

     total energy              =  -11426.62239547 Ry
     Harris-Foulkes estimate   =  -11427.34888397 Ry
     estimated scf accuracy    <       4.27407451 Ry

     iteration #  5     ecut=    25.00 Ry     beta= 0.70
     Davidson diagonalization with overlap
     ethr =  3.47E-04,  avg # of iterations =  4.0

     negative rho (up, down):  3.061E+00 0.000E+00

     total cpu time spent up to now is      111.3 secs

     WARNING: integrated charge=  1232.01792451, expected=  1232.00000000

     total energy              =  -11426.86813084 Ry
     Harris-Foulkes estimate   =  -11427.36320885 Ry
     estimated scf accuracy    <       4.84492493 Ry

     iteration #  6     ecut=    25.00 Ry     beta= 0.70
     Davidson diagonalization with overlap
     ethr =  3.47E-04,  avg # of iterations =  1.0

     negative rho (up, down):  3.069E+00 0.000E+00

     total cpu time spent up to now is      119.9 secs

     WARNING: integrated charge=  1232.01027945, expected=  1232.00000000

     total energy              =  -11427.08058455 Ry
     Harris-Foulkes estimate   =  -11427.10044681 Ry
     estimated scf accuracy    <       0.08552900 Ry

     iteration #  7     ecut=    25.00 Ry     beta= 0.70
     Davidson diagonalization with overlap
     c_bands:  1 eigenvalues not converged
     c_bands:  1 eigenvalues not converged
     ethr =  6.94E-06,  avg # of iterations = 20.0

     negative rho (up, down):  3.076E+00 0.000E+00

     total cpu time spent up to now is      155.0 secs

     WARNING: integrated charge=  1232.00580515, expected=  1232.00000000

     total energy              =  -11427.05852103 Ry
     Harris-Foulkes estimate   =  -11427.12415189 Ry
     estimated scf accuracy    <       0.43432983 Ry

     iteration #  8     ecut=    25.00 Ry     beta= 0.70
     Davidson diagonalization with overlap
     ethr =  6.94E-06,  avg # of iterations = 10.0

     negative rho (up, down):  3.080E+00 0.000E+00

     total cpu time spent up to now is      176.0 secs

     WARNING: integrated charge=  1232.00293121, expected=  1232.00000000

     total energy              =  -11427.06603288 Ry
     Harris-Foulkes estimate   =  -11427.12274627 Ry
     estimated scf accuracy    <       0.65097476 Ry

     iteration #  9     ecut=    25.00 Ry     beta= 0.70
     Davidson diagonalization with overlap
     ethr =  6.94E-06,  avg # of iterations =  8.0

     negative rho (up, down):  3.081E+00 0.000E+00

     total cpu time spent up to now is      192.0 secs

     WARNING: integrated charge=  1232.00201734, expected=  1232.00000000

     total energy              =  -11427.09300218 Ry
     Harris-Foulkes estimate   =  -11427.09461499 Ry
     estimated scf accuracy    <       0.00612400 Ry

     iteration # 10     ecut=    25.00 Ry     beta= 0.70
     Davidson diagonalization with overlap
     ethr =  4.97E-07,  avg # of iterations =  5.5

     negative rho (up, down):  3.082E+00 0.000E+00

     total cpu time spent up to now is      205.0 secs

     WARNING: integrated charge=  1232.00119243, expected=  1232.00000000

     total energy              =  -11427.09301142 Ry
     Harris-Foulkes estimate   =  -11427.09486744 Ry
     estimated scf accuracy    <       0.00957681 Ry

     iteration # 11     ecut=    25.00 Ry     beta= 0.70
     Davidson diagonalization with overlap
     ethr =  4.97E-07,  avg # of iterations =  2.0

     negative rho (up, down):  3.083E+00 0.000E+00

     total cpu time spent up to now is      214.5 secs

     WARNING: integrated charge=  1232.00108409, expected=  1232.00000000

     total energy              =  -11427.09335743 Ry
     Harris-Foulkes estimate   =  -11427.09450748 Ry
     estimated scf accuracy    <       0.00639114 Ry

     iteration # 12     ecut=    25.00 Ry     beta= 0.70
     Davidson diagonalization with overlap
     ethr =  4.97E-07,  avg # of iterations =  1.0

     negative rho (up, down):  3.083E+00 0.000E+00

     total cpu time spent up to now is      223.1 secs

     WARNING: integrated charge=  1232.00084747, expected=  1232.00000000

     total energy              =  -11427.09364110 Ry
     Harris-Foulkes estimate   =  -11427.09426839 Ry
     estimated scf accuracy    <       0.00550382 Ry

     iteration # 13     ecut=    25.00 Ry     beta= 0.70
     Davidson diagonalization with overlap
     ethr =  4.47E-07,  avg # of iterations =  1.0

     negative rho (up, down):  3.084E+00 0.000E+00

     total cpu time spent up to now is      231.7 secs

     WARNING: integrated charge=  1232.00032159, expected=  1232.00000000

     total energy              =  -11427.09393343 Ry
     Harris-Foulkes estimate   =  -11427.09410107 Ry
     estimated scf accuracy    <       0.00101049 Ry

     iteration # 14     ecut=    25.00 Ry     beta= 0.70
     Davidson diagonalization with overlap
     ethr =  8.20E-08,  avg # of iterations =  1.0

     negative rho (up, down):  3.084E+00 0.000E+00

     total cpu time spent up to now is      240.3 secs

     WARNING: integrated charge=  1232.00020285, expected=  1232.00000000

     total energy              =  -11427.09398092 Ry
     Harris-Foulkes estimate   =  -11427.09404167 Ry
     estimated scf accuracy    <       0.00016416 Ry

     iteration # 15     ecut=    25.00 Ry     beta= 0.70
     Davidson diagonalization with overlap
     ethr =  1.33E-08,  avg # of iterations =  2.0

     negative rho (up, down):  3.084E+00 0.000E+00

     total cpu time spent up to now is      250.1 secs

     WARNING: integrated charge=  1232.00021477, expected=  1232.00000000

     total energy              =  -11427.09395313 Ry
     Harris-Foulkes estimate   =  -11427.09408322 Ry
     estimated scf accuracy    <       0.00137832 Ry

     iteration # 16     ecut=    25.00 Ry     beta= 0.70
     Davidson diagonalization with overlap
     ethr =  1.33E-08,  avg # of iterations =  2.0

     negative rho (up, down):  3.084E+00 0.000E+00

     total cpu time spent up to now is      259.5 secs

     WARNING: integrated charge=  1232.00013633, expected=  1232.00000000

     total energy              =  -11427.09401473 Ry
     Harris-Foulkes estimate   =  -11427.09402713 Ry
     estimated scf accuracy    <       0.00005603 Ry

     iteration # 17     ecut=    25.00 Ry     beta= 0.70
     Davidson diagonalization with overlap
     ethr =  4.55E-09,  avg # of iterations =  2.0

     negative rho (up, down):  3.085E+00 0.000E+00

     total cpu time spent up to now is      269.0 secs

     total energy              =  -11427.09401931 Ry
     Harris-Foulkes estimate   =  -11427.09402366 Ry
     estimated scf accuracy    <       0.00001718 Ry

     iteration # 18     ecut=    25.00 Ry     beta= 0.70
     Davidson diagonalization with overlap
     ethr =  1.39E-09,  avg # of iterations =  2.0

     negative rho (up, down):  3.085E+00 0.000E+00

     total cpu time spent up to now is      278.5 secs

     WARNING: integrated charge=  1231.99869354, expected=  1232.00000000

     total energy              =  -11427.09409310 Ry
     Harris-Foulkes estimate   =  -11427.09402231 Ry
     estimated scf accuracy    <       0.01278815 Ry

     iteration # 19     ecut=    25.00 Ry     beta= 0.70
     Davidson diagonalization with overlap
     ethr =  1.39E-09,  avg # of iterations =  1.0

     negative rho (up, down):  3.085E+00 0.000E+00

     total cpu time spent up to now is      287.1 secs

     WARNING: integrated charge=  1231.99842367, expected=  1232.00000000

     total energy              =  -11427.09402080 Ry
     Harris-Foulkes estimate   =  -11427.09402247 Ry
     estimated scf accuracy    <       0.00000757 Ry

     iteration # 20     ecut=    25.00 Ry     beta= 0.70
     Davidson diagonalization with overlap
     ethr =  6.15E-10,  avg # of iterations =  2.0

     negative rho (up, down):  3.085E+00 0.000E+00

     total cpu time spent up to now is      296.5 secs

     WARNING: integrated charge=  1231.99858162, expected=  1232.00000000

     total energy              =  -11427.09402044 Ry
     Harris-Foulkes estimate   =  -11427.09402304 Ry
     estimated scf accuracy    <       0.00002716 Ry

     iteration # 21     ecut=    25.00 Ry     beta= 0.70
     Davidson diagonalization with overlap
     ethr =  6.15E-10,  avg # of iterations =  2.0

     negative rho (up, down):  3.085E+00 0.000E+00

     total cpu time spent up to now is      305.9 secs

     WARNING: integrated charge=  1231.99851827, expected=  1232.00000000

     total energy              =  -11427.09402104 Ry
     Harris-Foulkes estimate   =  -11427.09402260 Ry
     estimated scf accuracy    <       0.00000987 Ry

     iteration # 22     ecut=    25.00 Ry     beta= 0.70
     Davidson diagonalization with overlap
     ethr =  6.15E-10,  avg # of iterations =  1.0

     negative rho (up, down):  3.085E+00 0.000E+00

     total cpu time spent up to now is      314.4 secs

     WARNING: integrated charge=  1231.99846061, expected=  1232.00000000

     total energy              =  -11427.09402162 Ry
     Harris-Foulkes estimate   =  -11427.09402198 Ry
     estimated scf accuracy    <       0.00000227 Ry

     iteration # 23     ecut=    25.00 Ry     beta= 0.70
     Davidson diagonalization with overlap
     ethr =  1.85E-10,  avg # of iterations =  1.0

     negative rho (up, down):  3.085E+00 0.000E+00

     total cpu time spent up to now is      323.1 secs

     WARNING: integrated charge=  1231.99834711, expected=  1232.00000000

     total energy              =  -11427.09402162 Ry
     Harris-Foulkes estimate   =  -11427.09402202 Ry
     estimated scf accuracy    <       0.00000386 Ry

     iteration # 24     ecut=    25.00 Ry     beta= 0.70
     Davidson diagonalization with overlap
     ethr =  1.85E-10,  avg # of iterations =  1.0

     negative rho (up, down):  3.085E+00 0.000E+00

     total cpu time spent up to now is      331.8 secs

     End of self-consistent calculation

          k = 0.2500 0.5057 0.0000 ( 95386 PWs)   bands (ev):

    -8.0062  -7.7868  -7.3708  -7.1578  -6.9602  -6.8878  -6.8088  -6.6760
    -6.6122  -6.2913  -6.2208  -6.1904  -6.1064  -6.0387  -5.9316  -5.9292
    -5.8901  -5.8405  -5.8323  -5.8263  -5.7953  -5.7374  -5.7254  -5.6828
    -5.6688  -5.6509  -5.6467  -5.6415  -5.5512  -5.5398  -5.5323  -5.5241
    -5.5178  -5.5086  -5.4905  -5.4827  -5.4643  -5.4608  -5.4296  -5.3766
    -5.3704  -5.3551  -5.3529  -5.3185  -5.3113  -5.2952  -5.2926  -5.2351
    -5.2341  -5.2340  -5.2296  -5.2197  -5.2011  -5.1800  -5.1568  -5.1460
    -5.1312  -5.1258  -5.1170  -5.1155  -5.1119  -5.1106  -5.0894  -5.0689
    -5.0661  -5.0584  -5.0573  -5.0502  -5.0421  -5.0390  -5.0318  -4.9891
    -4.9834  -4.9682  -4.9651  -4.9494  -4.9356  -4.9337  -4.9302  -4.9282
    -4.9190  -4.9173  -4.9082  -4.9053  -4.8872  -4.8867  -4.8831  -4.8732
    -4.8732  -4.8634  -4.8609  -4.8501  -4.8293  -4.8283  -4.8261  -4.8234
    -4.7432  -4.7406  -4.7390  -4.7381  -4.7342  -4.7268  -4.7224  -4.7222
    -4.7215  -4.7134  -4.7008  -4.6861  -4.6755  -4.6179  -4.6014  -4.5984
    -4.5947  -4.5864  -4.5638  -4.5624  -4.5587  -4.5281  -4.4719  -4.4708
    -4.4522  -4.4151  -4.3992  -4.3964  -4.3948  -4.3945  -4.3930  -4.3867
    -4.3566  -4.3470  -4.3464  -4.3384  -4.3269  -4.3243  -4.3215  -4.3049
    -4.3034  -4.2752  -4.2658  -4.2587  -4.2490  -4.2465  -4.2307  -4.2119
    -4.1951  -4.1692  -4.1574  -4.1563  -4.1559  -4.1543  -4.1496  -4.1408
    -4.1386  -4.1058  -4.0985  -4.0847  -4.0787  -4.0776  -4.0712  -4.0557
    -4.0519  -4.0366  -4.0320  -4.0253  -4.0226  -4.0185  -4.0098  -3.9952
    -3.9881  -3.9720  -3.9599  -3.9289  -3.9153  -3.8999  -3.8944  -3.8909
    -3.8723  -3.8720  -3.8624  -3.8387  -3.8379  -3.8342  -3.8178  -3.8097
    -3.7872  -3.7814  -3.7405  -3.7371  -3.7278  -3.7254  -3.7162  -3.7115
    -3.7022  -3.6865  -3.6820  -3.6725  -3.6603  -3.6418  -3.6205  -3.6205
    -3.6186  -3.6175  -3.6068  -3.6031  -3.6004  -3.5965  -3.5930  -3.5810
    -3.5711  -3.5683  -3.5658  -3.5608  -3.5588  -3.5522  -3.5471  -3.5461
    -3.5448  -3.5355  -3.5249  -3.4936  -3.4835  -3.4576  -3.4553  -3.4442
    -3.4438  -3.4418  -3.4405  -3.4273  -3.4227  -3.4140  -3.4064  -3.3982
    -3.3891  -3.3810  -3.3753  -3.3733  -3.3716  -3.3708  -3.3656  -3.3576
    -3.3538  -3.3387  -3.3369  -3.3282  -3.3274  -3.3257  -3.3213  -3.3184
    -3.3147  -3.3143  -3.3104  -3.3099  -3.3010  -3.2982  -3.2932  -3.2874
    -3.2827  -3.2807  -3.2603  -3.2510  -3.2481  -3.2451  -3.2394  -3.2301
    -3.2209  -3.2202  -3.2154  -3.2115  -3.2035  -3.2010  -3.1902  -3.1818
    -3.1803  -3.1745  -3.1734  -3.1697  -3.1682  -3.1605  -3.1594  -3.1471
    -3.1469  -3.1229  -3.1225  -3.1119  -3.0995  -3.0919  -3.0856  -3.0593
    -3.0426  -3.0413  -3.0358  -3.0345  -3.0275  -3.0252  -3.0244  -3.0194
    -3.0185  -3.0176  -3.0168  -3.0104  -3.0037  -3.0028  -2.9906  -2.9861
    -2.9831  -2.9820  -2.9814  -2.9763  -2.9762  -2.9723  -2.9699  -2.9521
    -2.9164  -2.9143  -2.8914  -2.8771  -2.8755  -2.8636  -2.8610  -2.8506
    -2.8488  -2.8293  -2.8233  -2.8218  -2.8010  -2.7975  -2.7968  -2.7843
    -2.7810  -2.7766  -2.7686  -2.7654  -2.7515  -2.7504  -2.7481  -2.7434
    -2.7245  -2.7237  -2.7219  -2.7193  -2.6641  -2.6556  -2.6475  -2.6379
    -2.6308  -2.6274  -2.6228  -2.5968  -2.5814  -2.5711  -2.5687  -2.5682
    -2.5648  -2.5603  -2.5544  -2.5421  -2.5294  -2.5265  -2.5208  -2.5174
    -2.5103  -2.5085  -2.5024  -2.4942  -2.4912  -2.4876  -2.4817  -2.4805
    -2.4745  -2.4736  -2.4678  -2.4670  -2.4611  -2.4504  -2.4366  -2.4360
    -2.4077  -2.4014  -2.3995  -2.3756  -2.3716  -2.3645  -2.3571  -2.3571
    -2.3500  -2.3465  -2.3369  -2.3337  -2.3166  -2.3016  -2.2941  -2.2732
    -2.2699  -2.2680  -2.2650  -2.2501  -2.2446  -2.2348  -2.2329  -2.2163
    -2.2139  -2.2068  -2.2065  -2.1991  -2.1984  -2.1795  -2.1462  -2.1374
    -2.1317  -2.1071  -2.1036  -2.0861  -2.0688  -2.0497  -2.0488  -2.0454
    -2.0386  -2.0332  -2.0036  -1.9996  -1.9961  -1.9653  -1.9619  -1.9586
    -1.9573  -1.9532  -1.9494  -1.9466  -1.9406  -1.9401  -1.9382  -1.9321
    -1.9312  -1.9289  -1.9184  -1.9135  -1.9091  -1.9033  -1.8660  -1.8570
    -1.8563  -1.8399  -1.8323  -1.8286  -1.8245  -1.8183  -1.8174  -1.8149
    -1.8128  -1.8027  -1.8014  -1.8003  -1.7947  -1.7678  -1.7609  -1.7598
    -1.7588  -1.7496  -1.7445  -1.7438  -1.7379  -1.7378  -1.7279  -1.7252
    -1.7075  -1.7060  -1.7002  -1.6992  -1.6894  -1.6757  -1.6715  -1.6671
    -1.6648  -1.6600  -1.6521  -1.6301  -1.6143  -1.6050  -1.6007  -1.5988
    -1.5804  -1.5773  -1.5768  -1.5753  -1.5614  -1.5460  -1.5056  -1.5005
    -1.4939  -1.4893  -1.4813  -1.4804  -1.4719  -1.4686  -1.4611  -1.4594
    -1.4524  -1.4457  -1.4349  -1.4338  -1.4275  -1.4145  -1.4139  -1.4086
    -1.4010  -1.3830  -1.3730  -1.3698  -1.3643  -1.3593  -1.3467  -1.3409
    -1.3290  -1.3269  -1.3232  -1.3087  -1.3039  -1.2990  -1.2946  -1.2886
    -1.2885  -1.2791  -1.2778  -1.2684  -1.2659  -1.2567  -1.2549  -1.2510
    -1.2430  -1.2410  -1.2293  -1.2289  -1.2213  -1.2206  -1.2205  -1.2202
    -1.2167  -1.2101  -1.2072  -1.1793  -1.1780  -1.1720  -1.1579  -1.1567
    -1.1463  -1.1415  -1.1392  -1.1349  -1.1314  -1.1264  -1.1258  -1.1230
    -1.1202  -1.1089  -1.1072  -1.0998  -1.0887  -1.0842  -1.0813  -1.0793
    -1.0785  -1.0770  -1.0738  -1.0642  -1.0593  -1.0563  -1.0550  -1.0522
    -1.0515  -1.0455  -1.0057  -0.9824  -0.9711  -0.9662  -0.9536  -0.9385
    -0.9372  -0.9306  -0.9259  -0.9221  -0.9174  -0.9091  -0.9016  -0.8833
    -0.8794  -0.8627  -0.8313  -0.8294  -0.8273  -0.7672  -0.6694  -0.6330
    -0.6029  -0.5958  -0.5480  -0.4541  -0.3810  -0.1949  -0.1615  -0.1202
    -0.0048   0.0208   0.0560   0.1539   0.1607   0.1906   0.2693   0.2869
     0.3143   0.3333   0.5874   0.5908   0.6417   0.6705   0.7306   0.7770
     0.8014   0.8022   0.9227   0.9694   0.9819   1.1540   1.1627   1.1971
     1.3005   1.3249   1.3619   1.3863   1.4783   1.5201   1.5244   1.7941
     1.8669   1.8778   1.8959   1.8987   1.9088   1.9739   1.9808   2.0303
     2.0603   2.0721   2.1931   2.3997   2.4050   2.4070   2.4455   2.4501
     2.6419   2.6527   2.6762   2.7086   2.7203   2.7949   2.8404   3.1797
     3.2022   3.2167   3.2803   3.3282   3.3629   3.3765   3.5430   3.5463
     3.5686   3.6156   3.6246   3.7980   3.8052   3.8926   3.9017   3.9991
     4.0213   4.1231   4.1790   4.2426   4.2461   4.2691   4.3005   4.3960
     4.4708   4.4961   4.5197   4.5636   4.6618   4.8039   4.8102   4.8399
     4.8485   4.8512   4.8926   4.9657   4.9877   5.0728   5.0894   5.1932
     5.2001   5.2106   5.2367   5.2607   5.3009   5.4399   5.4941   5.5242
     5.5314   5.5319   5.5432   5.6485   5.6739   5.7190   5.7305   5.8354
     5.8510   5.8732   5.8946   5.9051   5.9068   5.9806   5.9899   6.0146
     6.0165   6.0253   6.0337   6.0411   6.0874   6.1369   6.1423   6.1471
     6.1644   6.2209   6.2300   6.3065   6.4003   6.4100   6.4460   6.4474
     6.4744   6.5137   6.5224   6.5734   6.5865   6.6310   6.6412   6.6527
     6.6614   6.6895   6.7347   6.7475   6.7697   6.8242   6.8293   6.9312
     6.9367   6.9715   6.9728   6.9992   7.0262   7.0628   7.1006   7.1092
     7.1271   7.1642   7.1894   7.1924   7.1990   7.2012   7.2783   7.2918
     7.3074   7.3537   7.3579   7.4013   7.4162   7.4343   7.4645   7.5077
     7.5595   7.5662   7.6050   7.6178   7.6587   7.6588   7.6671   7.6681
     7.6925   7.6939   7.7184   7.7217   7.7381   7.7407   7.7927   7.8314
     7.8569   7.8658   7.8745   7.9405   7.9897   7.9969   8.0004   8.0238

          k =-0.2500 0.5057 0.0000 ( 95386 PWs)   bands (ev):

    -8.0062  -7.7868  -7.3708  -7.1578  -6.9602  -6.8878  -6.8088  -6.6760
    -6.6122  -6.2913  -6.2208  -6.1904  -6.1064  -6.0387  -5.9316  -5.9292
    -5.8901  -5.8405  -5.8323  -5.8263  -5.7953  -5.7374  -5.7254  -5.6828
    -5.6688  -5.6509  -5.6467  -5.6415  -5.5512  -5.5398  -5.5323  -5.5241
    -5.5178  -5.5086  -5.4905  -5.4827  -5.4643  -5.4608  -5.4296  -5.3766
    -5.3704  -5.3551  -5.3529  -5.3185  -5.3113  -5.2952  -5.2926  -5.2351
    -5.2341  -5.2340  -5.2296  -5.2197  -5.2011  -5.1800  -5.1568  -5.1460
    -5.1312  -5.1258  -5.1170  -5.1155  -5.1119  -5.1106  -5.0894  -5.0688
    -5.0661  -5.0584  -5.0573  -5.0502  -5.0421  -5.0390  -5.0318  -4.9891
    -4.9834  -4.9682  -4.9651  -4.9494  -4.9356  -4.9337  -4.9302  -4.9282
    -4.9190  -4.9173  -4.9082  -4.9053  -4.8872  -4.8866  -4.8831  -4.8732
    -4.8732  -4.8634  -4.8609  -4.8501  -4.8293  -4.8283  -4.8261  -4.8234
    -4.7432  -4.7406  -4.7390  -4.7381  -4.7342  -4.7268  -4.7225  -4.7221
    -4.7215  -4.7134  -4.7008  -4.6861  -4.6755  -4.6179  -4.6014  -4.5984
    -4.5947  -4.5864  -4.5638  -4.5624  -4.5587  -4.5281  -4.4719  -4.4708
    -4.4522  -4.4151  -4.3992  -4.3965  -4.3948  -4.3945  -4.3930  -4.3867
    -4.3566  -4.3470  -4.3464  -4.3384  -4.3269  -4.3243  -4.3215  -4.3049
    -4.3034  -4.2752  -4.2658  -4.2587  -4.2490  -4.2465  -4.2307  -4.2119
    -4.1951  -4.1692  -4.1574  -4.1563  -4.1559  -4.1543  -4.1496  -4.1408
    -4.1386  -4.1058  -4.0985  -4.0847  -4.0787  -4.0776  -4.0712  -4.0557
    -4.0519  -4.0366  -4.0320  -4.0253  -4.0227  -4.0186  -4.0098  -3.9952
    -3.9881  -3.9720  -3.9599  -3.9289  -3.9153  -3.8999  -3.8944  -3.8909
    -3.8723  -3.8720  -3.8624  -3.8387  -3.8379  -3.8342  -3.8178  -3.8097
    -3.7872  -3.7814  -3.7405  -3.7371  -3.7278  -3.7254  -3.7162  -3.7115
    -3.7022  -3.6865  -3.6820  -3.6725  -3.6603  -3.6418  -3.6205  -3.6205
    -3.6186  -3.6175  -3.6068  -3.6031  -3.6004  -3.5965  -3.5930  -3.5810
    -3.5711  -3.5683  -3.5658  -3.5608  -3.5588  -3.5522  -3.5471  -3.5461
    -3.5448  -3.5355  -3.5249  -3.4936  -3.4835  -3.4576  -3.4553  -3.4442
    -3.4438  -3.4418  -3.4405  -3.4273  -3.4227  -3.4140  -3.4064  -3.3982
    -3.3891  -3.3810  -3.3753  -3.3733  -3.3716  -3.3708  -3.3656  -3.3576
    -3.3538  -3.3387  -3.3369  -3.3282  -3.3274  -3.3257  -3.3213  -3.3184
    -3.3147  -3.3143  -3.3104  -3.3099  -3.3010  -3.2982  -3.2932  -3.2873
    -3.2827  -3.2807  -3.2604  -3.2510  -3.2481  -3.2451  -3.2394  -3.2301
    -3.2209  -3.2202  -3.2155  -3.2115  -3.2035  -3.2010  -3.1902  -3.1818
    -3.1803  -3.1745  -3.1734  -3.1697  -3.1682  -3.1605  -3.1594  -3.1471
    -3.1469  -3.1229  -3.1225  -3.1119  -3.0995  -3.0919  -3.0856  -3.0593
    -3.0426  -3.0412  -3.0358  -3.0346  -3.0275  -3.0252  -3.0244  -3.0194
    -3.0186  -3.0176  -3.0168  -3.0104  -3.0037  -3.0028  -2.9906  -2.9862
    -2.9831  -2.9820  -2.9813  -2.9763  -2.9762  -2.9723  -2.9699  -2.9521
    -2.9164  -2.9143  -2.8914  -2.8771  -2.8755  -2.8636  -2.8610  -2.8506
    -2.8488  -2.8293  -2.8233  -2.8217  -2.8010  -2.7975  -2.7968  -2.7843
    -2.7810  -2.7766  -2.7686  -2.7654  -2.7515  -2.7504  -2.7481  -2.7434
    -2.7245  -2.7237  -2.7219  -2.7193  -2.6641  -2.6556  -2.6475  -2.6380
    -2.6308  -2.6274  -2.6228  -2.5968  -2.5814  -2.5710  -2.5687  -2.5682
    -2.5648  -2.5603  -2.5544  -2.5421  -2.5294  -2.5265  -2.5207  -2.5174
    -2.5103  -2.5085  -2.5024  -2.4942  -2.4912  -2.4876  -2.4817  -2.4805
    -2.4745  -2.4736  -2.4678  -2.4670  -2.4611  -2.4504  -2.4366  -2.4360
    -2.4077  -2.4014  -2.3995  -2.3756  -2.3716  -2.3645  -2.3571  -2.3571
    -2.3500  -2.3465  -2.3369  -2.3337  -2.3166  -2.3017  -2.2941  -2.2732
    -2.2699  -2.2680  -2.2650  -2.2501  -2.2446  -2.2349  -2.2329  -2.2163
    -2.2139  -2.2068  -2.2065  -2.1991  -2.1984  -2.1795  -2.1462  -2.1374
    -2.1317  -2.1071  -2.1036  -2.0861  -2.0688  -2.0498  -2.0488  -2.0454
    -2.0386  -2.0332  -2.0036  -1.9996  -1.9961  -1.9653  -1.9619  -1.9586
    -1.9574  -1.9532  -1.9494  -1.9466  -1.9406  -1.9401  -1.9382  -1.9322
    -1.9312  -1.9288  -1.9184  -1.9135  -1.9091  -1.9033  -1.8660  -1.8570
    -1.8563  -1.8399  -1.8323  -1.8286  -1.8245  -1.8183  -1.8174  -1.8149
    -1.8128  -1.8027  -1.8014  -1.8003  -1.7947  -1.7678  -1.7609  -1.7598
    -1.7588  -1.7496  -1.7445  -1.7438  -1.7379  -1.7378  -1.7279  -1.7252
    -1.7075  -1.7060  -1.7002  -1.6992  -1.6894  -1.6757  -1.6715  -1.6671
    -1.6648  -1.6600  -1.6521  -1.6301  -1.6143  -1.6050  -1.6007  -1.5988
    -1.5804  -1.5773  -1.5768  -1.5753  -1.5614  -1.5460  -1.5056  -1.5005
    -1.4939  -1.4893  -1.4813  -1.4804  -1.4719  -1.4686  -1.4611  -1.4594
    -1.4524  -1.4457  -1.4349  -1.4338  -1.4275  -1.4145  -1.4139  -1.4087
    -1.4010  -1.3830  -1.3730  -1.3698  -1.3643  -1.3593  -1.3467  -1.3409
    -1.3290  -1.3269  -1.3232  -1.3087  -1.3039  -1.2990  -1.2946  -1.2886
    -1.2885  -1.2791  -1.2778  -1.2684  -1.2659  -1.2567  -1.2549  -1.2510
    -1.2430  -1.2410  -1.2293  -1.2289  -1.2213  -1.2206  -1.2205  -1.2202
    -1.2167  -1.2101  -1.2072  -1.1793  -1.1780  -1.1720  -1.1579  -1.1567
    -1.1463  -1.1415  -1.1392  -1.1349  -1.1314  -1.1264  -1.1258  -1.1230
    -1.1202  -1.1089  -1.1072  -1.0998  -1.0887  -1.0842  -1.0813  -1.0793
    -1.0785  -1.0770  -1.0738  -1.0642  -1.0593  -1.0563  -1.0550  -1.0522
    -1.0515  -1.0455  -1.0057  -0.9824  -0.9711  -0.9662  -0.9536  -0.9387
    -0.9370  -0.9306  -0.9259  -0.9221  -0.9174  -0.9091  -0.9016  -0.8833
    -0.8794  -0.8627  -0.8313  -0.8294  -0.8273  -0.7672  -0.6694  -0.6330
    -0.6029  -0.5958  -0.5480  -0.4541  -0.3810  -0.1949  -0.1615  -0.1202
    -0.0048   0.0208   0.0560   0.1539   0.1607   0.1906   0.2693   0.2869
     0.3143   0.3333   0.5874   0.5908   0.6417   0.6705   0.7306   0.7770
     0.8014   0.8022   0.9227   0.9694   0.9819   1.1540   1.1627   1.1971
     1.3005   1.3249   1.3619   1.3863   1.4783   1.5201   1.5244   1.7941
     1.8669   1.8778   1.8959   1.8987   1.9088   1.9739   1.9807   2.0303
     2.0603   2.0721   2.1931   2.3997   2.4050   2.4070   2.4455   2.4501
     2.6419   2.6527   2.6762   2.7086   2.7203   2.7949   2.8404   3.1797
     3.2022   3.2167   3.2803   3.3282   3.3629   3.3765   3.5430   3.5463
     3.5686   3.6156   3.6246   3.7980   3.8052   3.8926   3.9017   3.9991
     4.0213   4.1231   4.1790   4.2426   4.2461   4.2691   4.3005   4.3960
     4.4708   4.4961   4.5197   4.5636   4.6618   4.8039   4.8102   4.8399
     4.8486   4.8512   4.8926   4.9657   4.9877   5.0728   5.0894   5.1932
     5.2001   5.2106   5.2367   5.2607   5.3009   5.4399   5.4941   5.5242
     5.5314   5.5319   5.5432   5.6485   5.6739   5.7190   5.7305   5.8354
     5.8510   5.8732   5.8946   5.9051   5.9068   5.9806   5.9899   6.0146
     6.0165   6.0253   6.0337   6.0411   6.0874   6.1369   6.1423   6.1471
     6.1644   6.2209   6.2300   6.3065   6.4003   6.4100   6.4460   6.4474
     6.4744   6.5137   6.5224   6.5734   6.5865   6.6310   6.6412   6.6527
     6.6614   6.6895   6.7347   6.7475   6.7697   6.8242   6.8293   6.9312
     6.9367   6.9715   6.9728   6.9992   7.0262   7.0628   7.1006   7.1092
     7.1271   7.1642   7.1894   7.1924   7.1990   7.2012   7.2783   7.2918
     7.3074   7.3537   7.3579   7.4013   7.4162   7.4343   7.4645   7.5077
     7.5595   7.5662   7.6050   7.6178   7.6587   7.6588   7.6671   7.6681
     7.6925   7.6939   7.7184   7.7217   7.7381   7.7407   7.7927   7.8314
     7.8569   7.8658   7.8745   7.9405   7.9897   7.9969   8.0004   8.0238

     the Fermi energy is     0.7831 ev

!    total energy              =  -11427.09402133 Ry
     Harris-Foulkes estimate   =  -11427.09402187 Ry
     estimated scf accuracy    <       0.00000052 Ry

     The total energy is the sum of the following terms:

     one-electron contribution = -129707.80019125 Ry
     hartree contribution      =   65677.98737767 Ry
     xc contribution           =   -5523.82659151 Ry
     ewald contribution        =   58126.48229572 Ry
     smearing contrib. (-TS)   =       0.06308804 Ry

     convergence has been achieved in  24 iterations

     negative rho (up, down):  3.085E+00 0.000E+00

     Forces acting on atoms (cartesian axes, Ry/au):

     atom    1 type  1   force =    -0.00089507    0.00014777    0.00842860
     atom    2 type  1   force =    -0.00089953   -0.00020676    0.00815244
     atom    3 type  1   force =    -0.00005528    0.00021047    0.00899486
     atom    4 type  1   force =    -0.00006641   -0.00015119    0.00872123
     atom    5 type  1   force =     0.00000683    0.00023969    0.00904003
     atom    6 type  1   force =     0.00001044   -0.00011859    0.00876814
     atom    7 type  1   force =    -0.00016791    0.00021515    0.00901957
     atom    8 type  1   force =    -0.00016378   -0.00013785    0.00874884
     atom    9 type  1   force =     0.00008328    0.00021318    0.00899949
     atom   10 type  1   force =     0.00008902   -0.00013309    0.00872732
     atom   11 type  1   force =    -0.00012598    0.00022845    0.00904543
     atom   12 type  1   force =    -0.00011672   -0.00011908    0.00876901
     atom   13 type  1   force =     0.00078105    0.00025452    0.00888392
     atom   14 type  1   force =     0.00078636   -0.00010295    0.00860305
     atom   15 type  1   force =    -0.00118860    0.00040345   -0.00531102
     atom   16 type  1   force =    -0.00119685   -0.00006050   -0.00540901
     atom   17 type  1   force =    -0.00009431    0.00036296   -0.00528755
     atom   18 type  1   force =    -0.00009155   -0.00008396   -0.00539072
     atom   19 type  1   force =     0.00000121    0.00036123   -0.00524867
     atom   20 type  1   force =     0.00001085   -0.00006931   -0.00536147
     atom   21 type  1   force =    -0.00018736    0.00035740   -0.00527359
     atom   22 type  1   force =    -0.00018783   -0.00006102   -0.00538657
     atom   23 type  1   force =     0.00014879    0.00035779   -0.00530648
     atom   24 type  1   force =     0.00014782   -0.00006527   -0.00541435
     atom   25 type  1   force =    -0.00015009    0.00036517   -0.00534915
     atom   26 type  1   force =    -0.00014746   -0.00008421   -0.00545183
     atom   27 type  1   force =     0.00097669    0.00037831   -0.00532994
     atom   28 type  1   force =     0.00097822   -0.00008932   -0.00543401
     atom   29 type  1   force =    -0.00047381   -0.00011300    0.00861386
     atom   30 type  1   force =    -0.00047588   -0.00049017    0.00866153
     atom   31 type  1   force =    -0.00003250   -0.00014449    0.00878670
     atom   32 type  1   force =    -0.00002814   -0.00049860    0.00882799
     atom   33 type  1   force =     0.00000920   -0.00015514    0.00875904
     atom   34 type  1   force =     0.00001454   -0.00051274    0.00879535
     atom   35 type  1   force =    -0.00004036   -0.00013963    0.00880451
     atom   36 type  1   force =    -0.00003778   -0.00050225    0.00883970
     atom   37 type  1   force =    -0.00012057   -0.00014330    0.00873935
     atom   38 type  1   force =    -0.00012415   -0.00051040    0.00877615
     atom   39 type  1   force =     0.00008037   -0.00014417    0.00879879
     atom   40 type  1   force =     0.00007395   -0.00052596    0.00884423
     atom   41 type  1   force =     0.00094957   -0.00022290    0.00814586
     atom   42 type  1   force =     0.00095143   -0.00061218    0.00818793
     atom   43 type  1   force =    -0.00063189   -0.00011021   -0.00531770
     atom   44 type  1   force =    -0.00062011   -0.00062057   -0.00528742
     atom   45 type  1   force =    -0.00006078   -0.00010862   -0.00530230
     atom   46 type  1   force =    -0.00004934   -0.00062570   -0.00527353
     atom   47 type  1   force =     0.00003149   -0.00009311   -0.00529371
     atom   48 type  1   force =     0.00003789   -0.00062534   -0.00527513
     atom   49 type  1   force =    -0.00001082   -0.00009361   -0.00532198
     atom   50 type  1   force =    -0.00001636   -0.00062838   -0.00530306
     atom   51 type  1   force =    -0.00010861   -0.00009478   -0.00535862
     atom   52 type  1   force =    -0.00012182   -0.00062332   -0.00532925
     atom   53 type  1   force =     0.00008789   -0.00010475   -0.00539394
     atom   54 type  1   force =     0.00007540   -0.00064088   -0.00536373
     atom   55 type  1   force =     0.00119393   -0.00006118   -0.00536561
     atom   56 type  1   force =     0.00119893   -0.00058598   -0.00533206
     atom   57 type  1   force =    -0.00094575    0.00069552   -0.00845670
     atom   58 type  1   force =    -0.00094940    0.00022904   -0.00813526
     atom   59 type  1   force =    -0.00004980    0.00064340   -0.00902472
     atom   60 type  1   force =    -0.00005412    0.00017646   -0.00870934
     atom   61 type  1   force =     0.00006940    0.00060428   -0.00907329
     atom   62 type  1   force =     0.00007062    0.00015482   -0.00875940
     atom   63 type  1   force =    -0.00011089    0.00062055   -0.00905764
     atom   64 type  1   force =    -0.00010861    0.00017595   -0.00874493
     atom   65 type  1   force =     0.00009530    0.00062342   -0.00905118
     atom   66 type  1   force =     0.00009345    0.00017309   -0.00873651
     atom   67 type  1   force =    -0.00015966    0.00061333   -0.00909779
     atom   68 type  1   force =    -0.00015035    0.00015993   -0.00878019
     atom   69 type  1   force =     0.00072048    0.00059703   -0.00893319
     atom   70 type  1   force =     0.00072043    0.00013194   -0.00860401
     atom   71 type  1   force =    -0.00063666    0.00075423    0.00522702
     atom   72 type  1   force =    -0.00064586    0.00023172    0.00540072
     atom   73 type  1   force =    -0.00003867    0.00074108    0.00520449
     atom   74 type  1   force =    -0.00003249    0.00024685    0.00537762
     atom   75 type  1   force =     0.00007007    0.00071845    0.00513469
     atom   76 type  1   force =     0.00007404    0.00025467    0.00530578
     atom   77 type  1   force =    -0.00000355    0.00072621    0.00510327
     atom   78 type  1   force =    -0.00000736    0.00025144    0.00527379
     atom   79 type  1   force =    -0.00012272    0.00073232    0.00512430
     atom   80 type  1   force =    -0.00011852    0.00024538    0.00530076
     atom   81 type  1   force =     0.00004905    0.00075349    0.00519038
     atom   82 type  1   force =     0.00005985    0.00024592    0.00536617
     atom   83 type  1   force =     0.00118232    0.00071193    0.00521709
     atom   84 type  1   force =     0.00115675    0.00018974    0.00539879
     atom   85 type  1   force =    -0.00121504    0.00004082    0.00538997
     atom   86 type  1   force =    -0.00121568   -0.00073780    0.00557755
     atom   87 type  1   force =    -0.00009318    0.00006949    0.00539820
     atom   88 type  1   force =    -0.00007971   -0.00070346    0.00558076
     atom   89 type  1   force =     0.00002726    0.00007135    0.00532016
     atom   90 type  1   force =     0.00004092   -0.00071450    0.00550382
     atom   91 type  1   force =    -0.00015762    0.00006663    0.00526257
     atom   92 type  1   force =    -0.00016175   -0.00072226    0.00545860
     atom   93 type  1   force =     0.00015129    0.00006683    0.00526639
     atom   94 type  1   force =     0.00014377   -0.00071951    0.00545414
     atom   95 type  1   force =    -0.00015597    0.00007554    0.00532056
     atom   96 type  1   force =    -0.00016738   -0.00071837    0.00550251
     atom   97 type  1   force =     0.00095603    0.00008676    0.00534829
     atom   98 type  1   force =     0.00094277   -0.00072488    0.00553622
     atom   99 type  1   force =    -0.00049731    0.00010069   -0.00858145
     atom  100 type  1   force =    -0.00049758   -0.00027584   -0.00864339
     atom  101 type  1   force =     0.00000067    0.00011671   -0.00875680
     atom  102 type  1   force =     0.00001409   -0.00024855   -0.00881480
     atom  103 type  1   force =     0.00008020    0.00012899   -0.00873796
     atom  104 type  1   force =     0.00008190   -0.00023598   -0.00878348
     atom  105 type  1   force =    -0.00000748    0.00011586   -0.00878530
     atom  106 type  1   force =    -0.00001133   -0.00025292   -0.00883752
     atom  107 type  1   force =    -0.00013089    0.00012127   -0.00873000
     atom  108 type  1   force =    -0.00013203   -0.00024475   -0.00878496
     atom  109 type  1   force =     0.00002815    0.00013636   -0.00879439
     atom  110 type  1   force =     0.00001788   -0.00024760   -0.00884902
     atom  111 type  1   force =     0.00088673    0.00022470   -0.00811326
     atom  112 type  1   force =     0.00088644   -0.00015886   -0.00817866

     Total force =     0.076918     Total SCF correction =     0.003705

     Writing output data file ./ausurf.save/
 
     init_run     :      5.18s CPU      5.42s WALL (       1 calls)
     electrons    :    316.71s CPU    326.42s WALL (       1 calls)
     forces       :      2.56s CPU      2.64s WALL (       1 calls)

     Called by init_run:
     wfcinit      :      3.94s CPU      4.13s WALL (       1 calls)
     potinit      :      0.07s CPU      0.07s WALL (       1 calls)
     hinit0       :      0.11s CPU      0.11s WALL (       1 calls)

     Called by electrons:
     c_bands      :    284.72s CPU    293.02s WALL (      25 calls)
     sum_band     :     29.91s CPU     30.89s WALL (      25 calls)
     v_of_rho     :      0.72s CPU      0.77s WALL (      25 calls)
     newd         :      1.01s CPU      1.22s WALL (      25 calls)
     mix_rho      :      0.18s CPU      0.19s WALL (      25 calls)

     Called by c_bands:
     init_us_2    :      0.60s CPU      0.62s WALL (     104 calls)
     cegterg      :    282.35s CPU    290.39s WALL (      50 calls)

     Called by sum_band:
     sum_band:bec :      0.65s CPU      0.66s WALL (      50 calls)
     addusdens    :      0.83s CPU      1.11s WALL (      25 calls)

     Called by *egterg:
     h_psi        :    121.44s CPU    124.31s WALL (     253 calls)
     s_psi        :     13.20s CPU     13.46s WALL (     253 calls)
     g_psi        :      0.16s CPU      0.16s WALL (     201 calls)
     cdiaghg      :     99.67s CPU    103.10s WALL (     249 calls)

     Called by h_psi:
     h_psi:calbec :     21.12s CPU     21.58s WALL (     253 calls)
     vloc_psi     :     86.64s CPU     88.51s WALL (     253 calls)
     add_vuspsi   :     13.37s CPU     13.81s WALL (     253 calls)

     General routines
     calbec       :     31.59s CPU     32.30s WALL (     311 calls)
     fft          :      0.93s CPU      0.93s WALL (     335 calls)
     ffts         :      0.12s CPU      0.12s WALL (      50 calls)
     fftw         :    102.36s CPU    104.64s WALL (  222958 calls)
     interpolate  :      0.12s CPU      0.12s WALL (      25 calls)
 
     Parallel routines
     fft_scatt_xy :      3.51s CPU      3.59s WALL (  223343 calls)
     fft_scatt_yz :     87.03s CPU     89.00s WALL (  223343 calls)
 
     PWSCF        :   5m37.28s CPU   6m34.92s WALL

 
   This run was terminated on:  14:18:10  16Jul2020            

=------------------------------------------------------------------------------=
   JOB DONE.
=------------------------------------------------------------------------------=
