
     Program PWSCF v.6.5 starts on 16Jul2020 at 12:21:18 

     This program is part of the open-source Quantum ESPRESSO suite
     for quantum simulation of materials; please cite
         "P. Giannozzi et al., J. Phys.:Condens. Matter 21 395502 (2009);
         "P. Giannozzi et al., J. Phys.:Condens. Matter 29 465901 (2017);
          URL http://www.quantum-espresso.org", 
     in publications or presentations arising from this work. More details at
     http://www.quantum-espresso.org/quote

     Parallel version (MPI & OpenMP), running on      36 processor cores
     Number of MPI processes:                36
     Threads/MPI process:                     1

     MPI processes distributed on     1 nodes
     R & G space division:  proc/nbgrp/npool/nimage =      36
     Reading input from ausurf.in

     Current dimensions of program PWSCF are:
     Max number of different atomic species (ntypx) = 10
     Max number of k-points (npk) =  40000
     Max angular momentum in pseudopotentials (lmaxx) =  3

     Subspace diagonalization in iterative solution of the eigenvalue problem:
     one sub-group per band group will be used
     scalapack distributed-memory algorithm (size of sub-group:  6*  6 procs)

 
     Parallelization info
     --------------------
     sticks:   dense  smooth     PW     G-vecs:    dense   smooth      PW
     Min         328     164     42                59950    21202    2796
     Max         329     165     43                59957    21207    2805
     Sum       11837    5915   1537              2158381   763307  100747
 

     Title: 
      DEISA pw benchmark                                                        


     bravais-lattice index     =            8
     lattice parameter (alat)  =      38.7583  a.u.
     unit-cell volume          =   45191.4962 (a.u.)^3
     number of atoms/cell      =          112
     number of atomic types    =            1
     number of electrons       =      1232.00
     number of Kohn-Sham states=          800
     kinetic-energy cutoff     =      25.0000  Ry
     charge density cutoff     =     200.0000  Ry
     convergence threshold     =      1.0E-06
     mixing beta               =       0.7000
     number of iterations used =            8  plain     mixing
     Exchange-correlation=  SLA  PW   PBE  PBE
                           (   1   4   3   4   0   0   0)

     celldm(1)=  38.758300  celldm(2)=   0.494393  celldm(3)=   1.569966
     celldm(4)=   0.000000  celldm(5)=   0.000000  celldm(6)=   0.000000

     crystal axes: (cart. coord. in units of alat)
               a(1) = (   1.000000   0.000000   0.000000 )  
               a(2) = (   0.000000   0.494393   0.000000 )  
               a(3) = (   0.000000   0.000000   1.569966 )  

     reciprocal axes: (cart. coord. in units 2 pi/alat)
               b(1) = (  1.000000  0.000000  0.000000 )  
               b(2) = (  0.000000  2.022682  0.000000 )  
               b(3) = (  0.000000  0.000000  0.636956 )  


     PseudoPot. # 1 for Au read from file:
     ./Au.pbe-nd-van.UPF
     MD5 check sum: deb5c07af10777505a79e28f5b4b4115
     Pseudo is Ultrasoft + core correction, Zval = 11.0
     Generated by new atomic code, or converted to UPF format
     Using radial grid of  985 points,  3 beta functions with: 
                l(1) =   1
                l(2) =   2
                l(3) =   2
     Q(r) pseudized with  8 coefficients,  rinner =    1.100   1.100   1.100
                                                       1.100   1.100

     atomic species   valence    mass     pseudopotential
        AU            11.00   196.96000     Au( 1.00)

     No symmetry found



   Cartesian axes

     site n.     atom                  positions (alat units)
         1           AU  tau(   1) = (   1.4278395   1.9784974   0.3497317  )
         2           AU  tau(   2) = (   1.4278395   1.7313987   0.3497317  )
         3           AU  tau(   3) = (   1.5706478   1.9784974   0.3497317  )
         4           AU  tau(   4) = (   1.5706478   1.7313987   0.3497317  )
         5           AU  tau(   5) = (   1.7134072   1.9784974   0.3497317  )
         6           AU  tau(   6) = (   1.7134072   1.7313987   0.3497317  )
         7           AU  tau(   7) = (   1.8562156   1.9784974   0.3497317  )
         8           AU  tau(   8) = (   1.8562156   1.7313987   0.3497317  )
         9           AU  tau(   9) = (   1.9989753   1.9784974   0.3497317  )
        10           AU  tau(  10) = (   1.9989753   1.7313987   0.3497317  )
        11           AU  tau(  11) = (   2.1417836   1.9784974   0.3497317  )
        12           AU  tau(  12) = (   2.1417836   1.7313987   0.3497317  )
        13           AU  tau(  13) = (   2.2845431   1.9784974   0.3497317  )
        14           AU  tau(  14) = (   2.2845431   1.7313987   0.3497317  )
        15           AU  tau(  15) = (   1.4278395   2.0609450   0.2331545  )
        16           AU  tau(  16) = (   1.4278395   1.8138461   0.2331545  )
        17           AU  tau(  17) = (   1.5706478   2.0609450   0.2331545  )
        18           AU  tau(  18) = (   1.5706478   1.8138461   0.2331545  )
        19           AU  tau(  19) = (   1.7134072   2.0609450   0.2331545  )
        20           AU  tau(  20) = (   1.7134072   1.8138461   0.2331545  )
        21           AU  tau(  21) = (   1.8562156   2.0609450   0.2331545  )
        22           AU  tau(  22) = (   1.8562156   1.8138461   0.2331545  )
        23           AU  tau(  23) = (   1.9989753   2.0609450   0.2331545  )
        24           AU  tau(  24) = (   1.9989753   1.8138461   0.2331545  )
        25           AU  tau(  25) = (   2.1417836   2.0609450   0.2331545  )
        26           AU  tau(  26) = (   2.1417836   1.8138461   0.2331545  )
        27           AU  tau(  27) = (   2.2845431   2.0609450   0.2331545  )
        28           AU  tau(  28) = (   2.2845431   1.8138461   0.2331545  )
        29           AU  tau(  29) = (   1.4992193   2.1021445   0.3497317  )
        30           AU  tau(  30) = (   1.4992193   1.8550456   0.3497317  )
        31           AU  tau(  31) = (   1.6420276   2.1021445   0.3497317  )
        32           AU  tau(  32) = (   1.6420276   1.8550456   0.3497317  )
        33           AU  tau(  33) = (   1.7847871   2.1021445   0.3497317  )
        34           AU  tau(  34) = (   1.7847871   1.8550456   0.3497317  )
        35           AU  tau(  35) = (   1.9275954   2.1021445   0.3497317  )
        36           AU  tau(  36) = (   1.9275954   1.8550456   0.3497317  )
        37           AU  tau(  37) = (   2.0704038   2.1021445   0.3497317  )
        38           AU  tau(  38) = (   2.0704038   1.8550456   0.3497317  )
        39           AU  tau(  39) = (   2.2131632   2.1021445   0.3497317  )
        40           AU  tau(  40) = (   2.2131632   1.8550456   0.3497317  )
        41           AU  tau(  41) = (   2.3559716   2.1021445   0.3497317  )
        42           AU  tau(  42) = (   2.3559716   1.8550456   0.3497317  )
        43           AU  tau(  43) = (   1.4992193   1.6901992   0.2331545  )
        44           AU  tau(  44) = (   1.4992193   1.9374930   0.2331545  )
        45           AU  tau(  45) = (   1.6420276   1.6901992   0.2331545  )
        46           AU  tau(  46) = (   1.6420276   1.9374930   0.2331545  )
        47           AU  tau(  47) = (   1.7847871   1.6901992   0.2331545  )
        48           AU  tau(  48) = (   1.7847871   1.9374930   0.2331545  )
        49           AU  tau(  49) = (   1.9275954   1.6901992   0.2331545  )
        50           AU  tau(  50) = (   1.9275954   1.9374930   0.2331545  )
        51           AU  tau(  51) = (   2.0704038   1.6901992   0.2331545  )
        52           AU  tau(  52) = (   2.0704038   1.9374930   0.2331545  )
        53           AU  tau(  53) = (   2.2131632   1.6901992   0.2331545  )
        54           AU  tau(  54) = (   2.2131632   1.9374930   0.2331545  )
        55           AU  tau(  55) = (   2.3559716   1.6901992   0.2331545  )
        56           AU  tau(  56) = (   2.3559716   1.9374930   0.2331545  )
        57           AU  tau(  57) = (   1.4278395   1.9784974   0.0000000  )
        58           AU  tau(  58) = (   1.4278395   1.7313987   0.0000000  )
        59           AU  tau(  59) = (   1.5706478   1.9784974   0.0000000  )
        60           AU  tau(  60) = (   1.5706478   1.7313987   0.0000000  )
        61           AU  tau(  61) = (   1.7134072   1.9784974   0.0000000  )
        62           AU  tau(  62) = (   1.7134072   1.7313987   0.0000000  )
        63           AU  tau(  63) = (   1.8562156   1.9784974   0.0000000  )
        64           AU  tau(  64) = (   1.8562156   1.7313987   0.0000000  )
        65           AU  tau(  65) = (   1.9989753   1.9784974   0.0000000  )
        66           AU  tau(  66) = (   1.9989753   1.7313987   0.0000000  )
        67           AU  tau(  67) = (   2.1417836   1.9784974   0.0000000  )
        68           AU  tau(  68) = (   2.1417836   1.7313987   0.0000000  )
        69           AU  tau(  69) = (   2.2845431   1.9784974   0.0000000  )
        70           AU  tau(  70) = (   2.2845431   1.7313987   0.0000000  )
        71           AU  tau(  71) = (   1.4992193   2.0196968   0.1165772  )
        72           AU  tau(  72) = (   1.4992193   1.7725979   0.1165772  )
        73           AU  tau(  73) = (   1.6420276   2.0196968   0.1165772  )
        74           AU  tau(  74) = (   1.6420276   1.7725979   0.1165772  )
        75           AU  tau(  75) = (   1.7847871   2.0196968   0.1165772  )
        76           AU  tau(  76) = (   1.7847871   1.7725979   0.1165772  )
        77           AU  tau(  77) = (   1.9275954   2.0196968   0.1165772  )
        78           AU  tau(  78) = (   1.9275954   1.7725979   0.1165772  )
        79           AU  tau(  79) = (   2.0704038   2.0196968   0.1165772  )
        80           AU  tau(  80) = (   2.0704038   1.7725979   0.1165772  )
        81           AU  tau(  81) = (   2.2131632   2.0196968   0.1165772  )
        82           AU  tau(  82) = (   2.2131632   1.7725979   0.1165772  )
        83           AU  tau(  83) = (   2.3559716   2.0196968   0.1165772  )
        84           AU  tau(  84) = (   2.3559716   1.7725979   0.1165772  )
        85           AU  tau(  85) = (   1.4278395   2.1433437   0.1165772  )
        86           AU  tau(  86) = (   1.4278395   1.8962938   0.1165772  )
        87           AU  tau(  87) = (   1.5706478   2.1433437   0.1165772  )
        88           AU  tau(  88) = (   1.5706478   1.8962938   0.1165772  )
        89           AU  tau(  89) = (   1.7134072   2.1433437   0.1165772  )
        90           AU  tau(  90) = (   1.7134072   1.8962938   0.1165772  )
        91           AU  tau(  91) = (   1.8562156   2.1433437   0.1165772  )
        92           AU  tau(  92) = (   1.8562156   1.8962938   0.1165772  )
        93           AU  tau(  93) = (   1.9989753   2.1433437   0.1165772  )
        94           AU  tau(  94) = (   1.9989753   1.8962938   0.1165772  )
        95           AU  tau(  95) = (   2.1417836   2.1433437   0.1165772  )
        96           AU  tau(  96) = (   2.1417836   1.8962938   0.1165772  )
        97           AU  tau(  97) = (   2.2845431   2.1433437   0.1165772  )
        98           AU  tau(  98) = (   2.2845431   1.8962938   0.1165772  )
        99           AU  tau(  99) = (   1.4992193   2.1021445   0.0000000  )
       100           AU  tau( 100) = (   1.4992193   1.8550456   0.0000000  )
       101           AU  tau( 101) = (   1.6420276   2.1021445   0.0000000  )
       102           AU  tau( 102) = (   1.6420276   1.8550456   0.0000000  )
       103           AU  tau( 103) = (   1.7847871   2.1021445   0.0000000  )
       104           AU  tau( 104) = (   1.7847871   1.8550456   0.0000000  )
       105           AU  tau( 105) = (   1.9275954   2.1021445   0.0000000  )
       106           AU  tau( 106) = (   1.9275954   1.8550456   0.0000000  )
       107           AU  tau( 107) = (   2.0704038   2.1021445   0.0000000  )
       108           AU  tau( 108) = (   2.0704038   1.8550456   0.0000000  )
       109           AU  tau( 109) = (   2.2131632   2.1021445   0.0000000  )
       110           AU  tau( 110) = (   2.2131632   1.8550456   0.0000000  )
       111           AU  tau( 111) = (   2.3559716   2.1021445   0.0000000  )
       112           AU  tau( 112) = (   2.3559716   1.8550456   0.0000000  )

     number of k points=     2  Marzari-Vanderbilt smearing, width (Ry)=  0.0500
                       cart. coord. in units 2pi/alat
        k(    1) = (   0.2500000   0.5056706   0.0000000), wk =   1.0000000
        k(    2) = (  -0.2500000   0.5056706   0.0000000), wk =   1.0000000

     Dense  grid:  2158381 G-vectors     FFT dimensions: ( 180,  90, 288)

     Smooth grid:   763307 G-vectors     FFT dimensions: ( 125,  64, 200)

     Estimated max dynamical RAM per process >     610.21 MB

     Estimated total dynamical RAM >      21.45 GB

     Initial potential from superposition of free atoms

     starting charge 1230.69946, renormalised to 1232.00000

     negative rho (up, down):  3.043E+00 0.000E+00
     Starting wfcs are 1008 randomized atomic wfcs

     total cpu time spent up to now is       16.3 secs

     Self-consistent Calculation

     iteration #  1     ecut=    25.00 Ry     beta= 0.70
     Davidson diagonalization with overlap
     ethr =  1.00E-02,  avg # of iterations =  6.5

     Threshold (ethr) on eigenvalues was too large:
     Diagonalizing with lowered threshold

     Davidson diagonalization with overlap
     ethr =  4.47E-04,  avg # of iterations =  4.5

     negative rho (up, down):  2.992E+00 0.000E+00

     total cpu time spent up to now is      100.0 secs

     total energy              =  -11423.49644896 Ry
     Harris-Foulkes estimate   =  -11428.44890833 Ry
     estimated scf accuracy    <       6.31780536 Ry

     iteration #  2     ecut=    25.00 Ry     beta= 0.70
     Davidson diagonalization with overlap
     ethr =  5.13E-04,  avg # of iterations = 11.5

     negative rho (up, down):  2.994E+00 0.000E+00

     total cpu time spent up to now is      207.5 secs

     total energy              =  -11408.22160466 Ry
     Harris-Foulkes estimate   =  -11440.28788406 Ry
     estimated scf accuracy    <     197.29681952 Ry

     iteration #  3     ecut=    25.00 Ry     beta= 0.70
     Davidson diagonalization with overlap
     ethr =  5.13E-04,  avg # of iterations =  6.0

     negative rho (up, down):  3.039E+00 0.000E+00

     total cpu time spent up to now is      288.6 secs

     total energy              =  -11426.39707142 Ry
     Harris-Foulkes estimate   =  -11427.97922140 Ry
     estimated scf accuracy    <       5.27823510 Ry

     iteration #  4     ecut=    25.00 Ry     beta= 0.70
     Davidson diagonalization with overlap
     ethr =  4.28E-04,  avg # of iterations =  3.0

     negative rho (up, down):  3.046E+00 0.000E+00

     total cpu time spent up to now is      321.6 secs

     total energy              =  -11426.61785810 Ry
     Harris-Foulkes estimate   =  -11427.35324640 Ry
     estimated scf accuracy    <       4.36155737 Ry

     iteration #  5     ecut=    25.00 Ry     beta= 0.70
     Davidson diagonalization with overlap
     ethr =  3.54E-04,  avg # of iterations =  4.0

     negative rho (up, down):  3.061E+00 0.000E+00

     total cpu time spent up to now is      356.0 secs

     total energy              =  -11426.87030827 Ry
     Harris-Foulkes estimate   =  -11427.36100421 Ry
     estimated scf accuracy    <       4.78916768 Ry

     iteration #  6     ecut=    25.00 Ry     beta= 0.70
     Davidson diagonalization with overlap
     ethr =  3.54E-04,  avg # of iterations =  1.0

     negative rho (up, down):  3.070E+00 0.000E+00

     total cpu time spent up to now is      385.5 secs

     total energy              =  -11427.08112388 Ry
     Harris-Foulkes estimate   =  -11427.10060204 Ry
     estimated scf accuracy    <       0.08444722 Ry

     iteration #  7     ecut=    25.00 Ry     beta= 0.70
     Davidson diagonalization with overlap
     ethr =  6.85E-06,  avg # of iterations = 12.0

     negative rho (up, down):  3.080E+00 0.000E+00

     total cpu time spent up to now is      460.2 secs

     total energy              =  -11427.07364922 Ry
     Harris-Foulkes estimate   =  -11427.11657626 Ry
     estimated scf accuracy    <       0.20329821 Ry

     iteration #  8     ecut=    25.00 Ry     beta= 0.70
     Davidson diagonalization with overlap
     ethr =  6.85E-06,  avg # of iterations =  8.0

     negative rho (up, down):  3.081E+00 0.000E+00

     total cpu time spent up to now is      506.2 secs

     total energy              =  -11427.09308702 Ry
     Harris-Foulkes estimate   =  -11427.09457489 Ry
     estimated scf accuracy    <       0.00486899 Ry

     iteration #  9     ecut=    25.00 Ry     beta= 0.70
     Davidson diagonalization with overlap
     ethr =  3.95E-07,  avg # of iterations =  5.0

     negative rho (up, down):  3.083E+00 0.000E+00

     total cpu time spent up to now is      549.2 secs

     total energy              =  -11427.09343389 Ry
     Harris-Foulkes estimate   =  -11427.09462854 Ry
     estimated scf accuracy    <       0.00506512 Ry

     iteration # 10     ecut=    25.00 Ry     beta= 0.70
     Davidson diagonalization with overlap
     ethr =  3.95E-07,  avg # of iterations =  2.0

     negative rho (up, down):  3.083E+00 0.000E+00

     total cpu time spent up to now is      579.9 secs

     total energy              =  -11427.09351064 Ry
     Harris-Foulkes estimate   =  -11427.09435930 Ry
     estimated scf accuracy    <       0.00733815 Ry

     iteration # 11     ecut=    25.00 Ry     beta= 0.70
     Davidson diagonalization with overlap
     ethr =  3.95E-07,  avg # of iterations =  1.0

     negative rho (up, down):  3.083E+00 0.000E+00

     total cpu time spent up to now is      609.4 secs

     total energy              =  -11427.09385513 Ry
     Harris-Foulkes estimate   =  -11427.09412670 Ry
     estimated scf accuracy    <       0.00191534 Ry

     iteration # 12     ecut=    25.00 Ry     beta= 0.70
     Davidson diagonalization with overlap
     ethr =  1.55E-07,  avg # of iterations =  1.0

     negative rho (up, down):  3.084E+00 0.000E+00

     total cpu time spent up to now is      638.8 secs

     total energy              =  -11427.09384481 Ry
     Harris-Foulkes estimate   =  -11427.09415364 Ry
     estimated scf accuracy    <       0.00233156 Ry

     iteration # 13     ecut=    25.00 Ry     beta= 0.70
     Davidson diagonalization with overlap
     ethr =  1.55E-07,  avg # of iterations =  1.0

     negative rho (up, down):  3.084E+00 0.000E+00

     total cpu time spent up to now is      668.2 secs

     total energy              =  -11427.09390595 Ry
     Harris-Foulkes estimate   =  -11427.09409577 Ry
     estimated scf accuracy    <       0.00156395 Ry

     iteration # 14     ecut=    25.00 Ry     beta= 0.70
     Davidson diagonalization with overlap
     ethr =  1.27E-07,  avg # of iterations =  1.0

     negative rho (up, down):  3.084E+00 0.000E+00

     total cpu time spent up to now is      698.4 secs

     total energy              =  -11427.09396030 Ry
     Harris-Foulkes estimate   =  -11427.09407478 Ry
     estimated scf accuracy    <       0.00074369 Ry

     iteration # 15     ecut=    25.00 Ry     beta= 0.70
     Davidson diagonalization with overlap
     ethr =  6.04E-08,  avg # of iterations =  1.0

     negative rho (up, down):  3.084E+00 0.000E+00

     total cpu time spent up to now is      727.8 secs

     total energy              =  -11427.09399713 Ry
     Harris-Foulkes estimate   =  -11427.09403710 Ry
     estimated scf accuracy    <       0.00030895 Ry

     iteration # 16     ecut=    25.00 Ry     beta= 0.70
     Davidson diagonalization with overlap
     ethr =  2.51E-08,  avg # of iterations =  1.0

     negative rho (up, down):  3.085E+00 0.000E+00

     total cpu time spent up to now is      757.2 secs

     total energy              =  -11427.09401462 Ry
     Harris-Foulkes estimate   =  -11427.09402836 Ry
     estimated scf accuracy    <       0.00011235 Ry

     iteration # 17     ecut=    25.00 Ry     beta= 0.70
     Davidson diagonalization with overlap
     ethr =  9.12E-09,  avg # of iterations =  1.0

     negative rho (up, down):  3.085E+00 0.000E+00

     total cpu time spent up to now is      786.7 secs

     total energy              =  -11427.09402004 Ry
     Harris-Foulkes estimate   =  -11427.09402277 Ry
     estimated scf accuracy    <       0.00000787 Ry

     iteration # 18     ecut=    25.00 Ry     beta= 0.70
     Davidson diagonalization with overlap
     ethr =  6.39E-10,  avg # of iterations =  2.0

     negative rho (up, down):  3.085E+00 0.000E+00

     total cpu time spent up to now is      820.3 secs

     total energy              =  -11427.09402085 Ry
     Harris-Foulkes estimate   =  -11427.09402267 Ry
     estimated scf accuracy    <       0.00000732 Ry

     iteration # 19     ecut=    25.00 Ry     beta= 0.70
     Davidson diagonalization with overlap
     ethr =  5.94E-10,  avg # of iterations =  2.0

     negative rho (up, down):  3.085E+00 0.000E+00

     total cpu time spent up to now is      851.3 secs

     total energy              =  -11427.09402152 Ry
     Harris-Foulkes estimate   =  -11427.09402191 Ry
     estimated scf accuracy    <       0.00000115 Ry

     iteration # 20     ecut=    25.00 Ry     beta= 0.70
     Davidson diagonalization with overlap
     ethr =  9.37E-11,  avg # of iterations =  2.0

     negative rho (up, down):  3.085E+00 0.000E+00

     total cpu time spent up to now is      883.9 secs

     total energy              =  -11427.09402157 Ry
     Harris-Foulkes estimate   =  -11427.09402186 Ry
     estimated scf accuracy    <       0.00000168 Ry

     iteration # 21     ecut=    25.00 Ry     beta= 0.70
     Davidson diagonalization with overlap
     ethr =  9.37E-11,  avg # of iterations =  1.0

     negative rho (up, down):  3.085E+00 0.000E+00

     total cpu time spent up to now is      915.8 secs

     total energy              =  -11427.09402098 Ry
     Harris-Foulkes estimate   =  -11427.09402188 Ry
     estimated scf accuracy    <       0.00015543 Ry

     iteration # 22     ecut=    25.00 Ry     beta= 0.70
     Davidson diagonalization with overlap
     ethr =  9.37E-11,  avg # of iterations =  6.5

     negative rho (up, down):  3.085E+00 0.000E+00

     total cpu time spent up to now is      976.5 secs

     total energy              =  -11427.09402156 Ry
     Harris-Foulkes estimate   =  -11427.09402192 Ry
     estimated scf accuracy    <       0.00000331 Ry

     iteration # 23     ecut=    25.00 Ry     beta= 0.70
     Davidson diagonalization with overlap
     ethr =  9.37E-11,  avg # of iterations =  2.0

     negative rho (up, down):  3.085E+00 0.000E+00

     total cpu time spent up to now is     1007.3 secs

     total energy              =  -11427.09402160 Ry
     Harris-Foulkes estimate   =  -11427.09402186 Ry
     estimated scf accuracy    <       0.00000221 Ry

     iteration # 24     ecut=    25.00 Ry     beta= 0.70
     Davidson diagonalization with overlap
     ethr =  9.37E-11,  avg # of iterations =  1.0

     negative rho (up, down):  3.085E+00 0.000E+00

     total cpu time spent up to now is     1036.7 secs

     total energy              =  -11427.09402162 Ry
     Harris-Foulkes estimate   =  -11427.09402186 Ry
     estimated scf accuracy    <       0.00000214 Ry

     iteration # 25     ecut=    25.00 Ry     beta= 0.70
     Davidson diagonalization with overlap
     ethr =  9.37E-11,  avg # of iterations =  1.0

     negative rho (up, down):  3.085E+00 0.000E+00

     total cpu time spent up to now is     1066.2 secs

     End of self-consistent calculation

          k = 0.2500 0.5057 0.0000 ( 95386 PWs)   bands (ev):

    -8.0049  -7.7855  -7.3695  -7.1565  -6.9589  -6.8865  -6.8075  -6.6747
    -6.6109  -6.2901  -6.2194  -6.1891  -6.1051  -6.0374  -5.9303  -5.9280
    -5.8888  -5.8391  -5.8310  -5.8250  -5.7940  -5.7361  -5.7240  -5.6815
    -5.6675  -5.6496  -5.6454  -5.6402  -5.5498  -5.5385  -5.5310  -5.5227
    -5.5165  -5.5073  -5.4893  -5.4813  -5.4630  -5.4595  -5.4283  -5.3752
    -5.3691  -5.3538  -5.3516  -5.3171  -5.3099  -5.2939  -5.2913  -5.2337
    -5.2327  -5.2327  -5.2283  -5.2184  -5.1998  -5.1787  -5.1554  -5.1447
    -5.1299  -5.1245  -5.1157  -5.1142  -5.1106  -5.1093  -5.0881  -5.0675
    -5.0648  -5.0571  -5.0560  -5.0489  -5.0408  -5.0377  -5.0305  -4.9878
    -4.9821  -4.9669  -4.9638  -4.9481  -4.9343  -4.9324  -4.9289  -4.9269
    -4.9177  -4.9160  -4.9069  -4.9039  -4.8858  -4.8854  -4.8818  -4.8719
    -4.8719  -4.8621  -4.8596  -4.8488  -4.8280  -4.8270  -4.8248  -4.8221
    -4.7419  -4.7393  -4.7377  -4.7368  -4.7329  -4.7255  -4.7211  -4.7209
    -4.7202  -4.7120  -4.6995  -4.6848  -4.6742  -4.6166  -4.6001  -4.5971
    -4.5934  -4.5850  -4.5624  -4.5611  -4.5574  -4.5268  -4.4706  -4.4695
    -4.4509  -4.4138  -4.3980  -4.3952  -4.3935  -4.3932  -4.3917  -4.3854
    -4.3554  -4.3457  -4.3451  -4.3371  -4.3256  -4.3229  -4.3202  -4.3036
    -4.3021  -4.2739  -4.2645  -4.2574  -4.2477  -4.2452  -4.2294  -4.2106
    -4.1938  -4.1679  -4.1562  -4.1550  -4.1546  -4.1531  -4.1482  -4.1395
    -4.1373  -4.1045  -4.0972  -4.0834  -4.0774  -4.0762  -4.0699  -4.0544
    -4.0506  -4.0353  -4.0307  -4.0240  -4.0213  -4.0172  -4.0084  -3.9939
    -3.9868  -3.9707  -3.9586  -3.9275  -3.9140  -3.8986  -3.8931  -3.8896
    -3.8710  -3.8707  -3.8611  -3.8374  -3.8366  -3.8329  -3.8164  -3.8084
    -3.7860  -3.7801  -3.7392  -3.7358  -3.7265  -3.7241  -3.7149  -3.7102
    -3.7009  -3.6852  -3.6807  -3.6712  -3.6589  -3.6405  -3.6192  -3.6192
    -3.6172  -3.6162  -3.6055  -3.6018  -3.5991  -3.5952  -3.5917  -3.5797
    -3.5698  -3.5670  -3.5645  -3.5595  -3.5575  -3.5509  -3.5458  -3.5448
    -3.5435  -3.5342  -3.5236  -3.4923  -3.4822  -3.4563  -3.4540  -3.4429
    -3.4425  -3.4405  -3.4392  -3.4261  -3.4213  -3.4127  -3.4051  -3.3970
    -3.3879  -3.3797  -3.3740  -3.3720  -3.3703  -3.3695  -3.3643  -3.3563
    -3.3525  -3.3374  -3.3356  -3.3269  -3.3261  -3.3244  -3.3199  -3.3171
    -3.3134  -3.3130  -3.3091  -3.3086  -3.2997  -3.2969  -3.2919  -3.2861
    -3.2814  -3.2794  -3.2590  -3.2497  -3.2468  -3.2438  -3.2381  -3.2288
    -3.2196  -3.2189  -3.2142  -3.2102  -3.2021  -3.1997  -3.1889  -3.1805
    -3.1790  -3.1732  -3.1721  -3.1684  -3.1669  -3.1592  -3.1581  -3.1458
    -3.1457  -3.1216  -3.1212  -3.1106  -3.0983  -3.0906  -3.0844  -3.0580
    -3.0413  -3.0400  -3.0345  -3.0333  -3.0262  -3.0239  -3.0231  -3.0181
    -3.0173  -3.0163  -3.0155  -3.0091  -3.0024  -3.0015  -2.9893  -2.9848
    -2.9818  -2.9808  -2.9801  -2.9750  -2.9749  -2.9710  -2.9686  -2.9508
    -2.9151  -2.9130  -2.8901  -2.8758  -2.8742  -2.8623  -2.8597  -2.8493
    -2.8475  -2.8280  -2.8220  -2.8205  -2.7997  -2.7962  -2.7956  -2.7831
    -2.7797  -2.7753  -2.7674  -2.7641  -2.7502  -2.7491  -2.7468  -2.7421
    -2.7232  -2.7225  -2.7206  -2.7180  -2.6628  -2.6543  -2.6462  -2.6366
    -2.6295  -2.6261  -2.6215  -2.5955  -2.5801  -2.5698  -2.5674  -2.5669
    -2.5635  -2.5590  -2.5531  -2.5408  -2.5281  -2.5252  -2.5194  -2.5161
    -2.5090  -2.5072  -2.5011  -2.4929  -2.4899  -2.4863  -2.4804  -2.4792
    -2.4732  -2.4724  -2.4665  -2.4657  -2.4598  -2.4491  -2.4353  -2.4347
    -2.4064  -2.4001  -2.3983  -2.3743  -2.3703  -2.3632  -2.3559  -2.3558
    -2.3487  -2.3452  -2.3356  -2.3324  -2.3153  -2.3003  -2.2928  -2.2719
    -2.2685  -2.2667  -2.2637  -2.2488  -2.2433  -2.2335  -2.2317  -2.2150
    -2.2126  -2.2055  -2.2052  -2.1979  -2.1970  -2.1783  -2.1449  -2.1361
    -2.1304  -2.1058  -2.1024  -2.0848  -2.0675  -2.0484  -2.0475  -2.0442
    -2.0373  -2.0319  -2.0023  -1.9983  -1.9948  -1.9640  -1.9607  -1.9573
    -1.9561  -1.9519  -1.9481  -1.9453  -1.9393  -1.9388  -1.9369  -1.9308
    -1.9299  -1.9276  -1.9171  -1.9122  -1.9078  -1.9020  -1.8647  -1.8557
    -1.8550  -1.8386  -1.8310  -1.8273  -1.8232  -1.8170  -1.8161  -1.8136
    -1.8115  -1.8014  -1.8001  -1.7990  -1.7934  -1.7665  -1.7596  -1.7585
    -1.7575  -1.7483  -1.7432  -1.7425  -1.7365  -1.7365  -1.7266  -1.7239
    -1.7062  -1.7047  -1.6988  -1.6979  -1.6881  -1.6744  -1.6702  -1.6658
    -1.6635  -1.6587  -1.6508  -1.6288  -1.6130  -1.6038  -1.5994  -1.5975
    -1.5791  -1.5760  -1.5755  -1.5740  -1.5602  -1.5447  -1.5043  -1.4992
    -1.4927  -1.4881  -1.4800  -1.4791  -1.4706  -1.4673  -1.4598  -1.4581
    -1.4511  -1.4444  -1.4336  -1.4324  -1.4262  -1.4132  -1.4126  -1.4074
    -1.3997  -1.3817  -1.3718  -1.3685  -1.3629  -1.3580  -1.3454  -1.3396
    -1.3277  -1.3256  -1.3219  -1.3074  -1.3026  -1.2977  -1.2933  -1.2873
    -1.2872  -1.2778  -1.2766  -1.2671  -1.2646  -1.2554  -1.2536  -1.2497
    -1.2417  -1.2397  -1.2280  -1.2276  -1.2200  -1.2193  -1.2192  -1.2189
    -1.2154  -1.2088  -1.2059  -1.1780  -1.1767  -1.1707  -1.1566  -1.1554
    -1.1450  -1.1402  -1.1379  -1.1335  -1.1300  -1.1250  -1.1245  -1.1217
    -1.1189  -1.1076  -1.1059  -1.0985  -1.0874  -1.0829  -1.0800  -1.0780
    -1.0772  -1.0757  -1.0725  -1.0629  -1.0579  -1.0550  -1.0537  -1.0509
    -1.0502  -1.0442  -1.0045  -0.9811  -0.9698  -0.9650  -0.9523  -0.9372
    -0.9359  -0.9293  -0.9246  -0.9208  -0.9161  -0.9078  -0.9003  -0.8820
    -0.8781  -0.8614  -0.8300  -0.8281  -0.8260  -0.7659  -0.6681  -0.6317
    -0.6016  -0.5946  -0.5467  -0.4528  -0.3797  -0.1936  -0.1602  -0.1189
    -0.0036   0.0221   0.0572   0.1552   0.1620   0.1919   0.2706   0.2882
     0.3155   0.3346   0.5887   0.5921   0.6430   0.6718   0.7319   0.7782
     0.8026   0.8035   0.9240   0.9706   0.9831   1.1553   1.1639   1.1984
     1.3017   1.3262   1.3632   1.3875   1.4795   1.5213   1.5257   1.7954
     1.8681   1.8790   1.8972   1.8999   1.9100   1.9751   1.9821   2.0315
     2.0616   2.0733   2.1943   2.4010   2.4063   2.4083   2.4468   2.4514
     2.6431   2.6540   2.6775   2.7098   2.7216   2.7961   2.8416   3.1810
     3.2035   3.2178   3.2817   3.3295   3.3641   3.3778   3.5443   3.5475
     3.5699   3.6169   3.6259   3.7992   3.8064   3.8938   3.9030   4.0004
     4.0226   4.1242   4.1803   4.2439   4.2474   4.2704   4.3018   4.3973
     4.4720   4.4973   4.5210   4.5648   4.6630   4.8052   4.8115   4.8410
     4.8498   4.8523   4.8939   4.9670   4.9890   5.0740   5.0907   5.1945
     5.2014   5.2118   5.2380   5.2618   5.3014   5.4403   5.4932   5.5255
     5.5326   5.5330   5.5444   5.6498   5.6731   5.7196   5.7318   5.8367
     5.8522   5.8739   5.8957   5.9064   5.9064   5.9800   5.9912   6.0158
     6.0172   6.0265   6.0329   6.0422   6.0869   6.1382   6.1418   6.1477
     6.1657   6.2221   6.2292   6.3071   6.4016   6.4092   6.4469   6.4473
     6.4738   6.5148   6.5237   6.5725   6.5878   6.6322   6.6407   6.6540
     6.6608   6.6908   6.7354   6.7482   6.7689   6.8237   6.8288   6.9307
     6.9365   6.9722   6.9727   6.9987   7.0274   7.0636   7.1003   7.1088
     7.1284   7.1636   7.1906   7.1920   7.1998   7.2023   7.2795   7.2909
     7.3065   7.3547   7.3591   7.4025   7.4172   7.4340   7.4641   7.5086
     7.5608   7.5675   7.6062   7.6175   7.6582   7.6583   7.6666   7.6693
     7.6930   7.6938   7.7179   7.7229   7.7376   7.7420   7.7924   7.8310
     7.8580   7.8671   7.9402   7.9888   7.9964   8.0016   8.0249   8.0923

          k =-0.2500 0.5057 0.0000 ( 95386 PWs)   bands (ev):

    -8.0049  -7.7855  -7.3695  -7.1565  -6.9589  -6.8865  -6.8075  -6.6747
    -6.6109  -6.2901  -6.2194  -6.1891  -6.1051  -6.0374  -5.9303  -5.9280
    -5.8888  -5.8391  -5.8310  -5.8250  -5.7940  -5.7361  -5.7240  -5.6815
    -5.6675  -5.6496  -5.6454  -5.6402  -5.5498  -5.5385  -5.5310  -5.5227
    -5.5165  -5.5073  -5.4893  -5.4813  -5.4630  -5.4595  -5.4283  -5.3752
    -5.3691  -5.3538  -5.3516  -5.3171  -5.3099  -5.2939  -5.2913  -5.2337
    -5.2327  -5.2327  -5.2283  -5.2184  -5.1998  -5.1787  -5.1554  -5.1447
    -5.1299  -5.1245  -5.1157  -5.1142  -5.1106  -5.1092  -5.0881  -5.0675
    -5.0648  -5.0571  -5.0560  -5.0489  -5.0408  -5.0377  -5.0305  -4.9878
    -4.9821  -4.9669  -4.9638  -4.9481  -4.9343  -4.9324  -4.9289  -4.9269
    -4.9177  -4.9160  -4.9069  -4.9040  -4.8858  -4.8854  -4.8818  -4.8719
    -4.8719  -4.8621  -4.8596  -4.8488  -4.8280  -4.8270  -4.8248  -4.8221
    -4.7419  -4.7393  -4.7377  -4.7368  -4.7329  -4.7255  -4.7212  -4.7208
    -4.7202  -4.7120  -4.6995  -4.6848  -4.6742  -4.6166  -4.6001  -4.5971
    -4.5934  -4.5850  -4.5624  -4.5611  -4.5574  -4.5268  -4.4706  -4.4695
    -4.4509  -4.4138  -4.3980  -4.3952  -4.3935  -4.3932  -4.3917  -4.3854
    -4.3553  -4.3457  -4.3451  -4.3371  -4.3256  -4.3229  -4.3202  -4.3036
    -4.3021  -4.2739  -4.2645  -4.2574  -4.2477  -4.2452  -4.2294  -4.2106
    -4.1938  -4.1679  -4.1562  -4.1550  -4.1546  -4.1531  -4.1482  -4.1395
    -4.1373  -4.1045  -4.0972  -4.0834  -4.0774  -4.0762  -4.0699  -4.0544
    -4.0506  -4.0353  -4.0307  -4.0240  -4.0213  -4.0172  -4.0084  -3.9939
    -3.9868  -3.9707  -3.9586  -3.9275  -3.9140  -3.8986  -3.8931  -3.8896
    -3.8710  -3.8707  -3.8611  -3.8374  -3.8365  -3.8329  -3.8165  -3.8084
    -3.7860  -3.7801  -3.7392  -3.7358  -3.7265  -3.7241  -3.7149  -3.7102
    -3.7009  -3.6852  -3.6807  -3.6712  -3.6589  -3.6405  -3.6192  -3.6192
    -3.6173  -3.6162  -3.6055  -3.6018  -3.5991  -3.5952  -3.5917  -3.5797
    -3.5698  -3.5670  -3.5645  -3.5595  -3.5575  -3.5509  -3.5458  -3.5448
    -3.5435  -3.5342  -3.5236  -3.4923  -3.4823  -3.4563  -3.4540  -3.4429
    -3.4425  -3.4405  -3.4392  -3.4261  -3.4213  -3.4127  -3.4051  -3.3970
    -3.3879  -3.3797  -3.3740  -3.3720  -3.3703  -3.3695  -3.3643  -3.3563
    -3.3525  -3.3374  -3.3356  -3.3269  -3.3261  -3.3244  -3.3199  -3.3171
    -3.3134  -3.3130  -3.3091  -3.3086  -3.2997  -3.2969  -3.2919  -3.2860
    -3.2814  -3.2794  -3.2591  -3.2497  -3.2467  -3.2438  -3.2381  -3.2288
    -3.2196  -3.2189  -3.2142  -3.2102  -3.2022  -3.1997  -3.1889  -3.1805
    -3.1790  -3.1732  -3.1721  -3.1684  -3.1669  -3.1592  -3.1581  -3.1458
    -3.1457  -3.1216  -3.1212  -3.1106  -3.0983  -3.0906  -3.0844  -3.0580
    -3.0413  -3.0399  -3.0345  -3.0333  -3.0262  -3.0239  -3.0231  -3.0181
    -3.0173  -3.0163  -3.0155  -3.0091  -3.0024  -3.0015  -2.9894  -2.9849
    -2.9818  -2.9807  -2.9800  -2.9750  -2.9749  -2.9710  -2.9686  -2.9508
    -2.9151  -2.9130  -2.8901  -2.8758  -2.8742  -2.8623  -2.8597  -2.8493
    -2.8475  -2.8280  -2.8220  -2.8205  -2.7997  -2.7962  -2.7956  -2.7831
    -2.7797  -2.7753  -2.7674  -2.7641  -2.7502  -2.7491  -2.7468  -2.7421
    -2.7233  -2.7225  -2.7206  -2.7180  -2.6628  -2.6543  -2.6462  -2.6366
    -2.6296  -2.6261  -2.6215  -2.5955  -2.5801  -2.5698  -2.5674  -2.5669
    -2.5635  -2.5590  -2.5531  -2.5408  -2.5281  -2.5252  -2.5194  -2.5161
    -2.5090  -2.5072  -2.5011  -2.4929  -2.4899  -2.4863  -2.4804  -2.4792
    -2.4732  -2.4724  -2.4665  -2.4657  -2.4598  -2.4491  -2.4353  -2.4347
    -2.4064  -2.4001  -2.3983  -2.3743  -2.3703  -2.3632  -2.3559  -2.3558
    -2.3487  -2.3452  -2.3356  -2.3324  -2.3153  -2.3003  -2.2928  -2.2719
    -2.2685  -2.2667  -2.2637  -2.2488  -2.2433  -2.2336  -2.2317  -2.2150
    -2.2126  -2.2055  -2.2052  -2.1979  -2.1970  -2.1783  -2.1449  -2.1361
    -2.1304  -2.1058  -2.1023  -2.0848  -2.0675  -2.0484  -2.0475  -2.0442
    -2.0373  -2.0319  -2.0023  -1.9983  -1.9948  -1.9641  -1.9607  -1.9573
    -1.9561  -1.9519  -1.9480  -1.9453  -1.9393  -1.9388  -1.9369  -1.9309
    -1.9299  -1.9275  -1.9171  -1.9122  -1.9078  -1.9020  -1.8647  -1.8557
    -1.8550  -1.8386  -1.8310  -1.8273  -1.8232  -1.8170  -1.8161  -1.8136
    -1.8115  -1.8014  -1.8001  -1.7990  -1.7934  -1.7665  -1.7596  -1.7585
    -1.7575  -1.7483  -1.7432  -1.7425  -1.7366  -1.7365  -1.7266  -1.7239
    -1.7062  -1.7047  -1.6988  -1.6979  -1.6881  -1.6744  -1.6702  -1.6658
    -1.6635  -1.6587  -1.6508  -1.6288  -1.6130  -1.6038  -1.5994  -1.5975
    -1.5791  -1.5760  -1.5755  -1.5740  -1.5602  -1.5447  -1.5043  -1.4992
    -1.4927  -1.4881  -1.4800  -1.4791  -1.4706  -1.4673  -1.4598  -1.4581
    -1.4511  -1.4444  -1.4336  -1.4324  -1.4262  -1.4133  -1.4126  -1.4074
    -1.3997  -1.3817  -1.3718  -1.3685  -1.3629  -1.3580  -1.3454  -1.3396
    -1.3277  -1.3256  -1.3219  -1.3074  -1.3026  -1.2977  -1.2933  -1.2873
    -1.2872  -1.2778  -1.2766  -1.2671  -1.2646  -1.2554  -1.2536  -1.2497
    -1.2417  -1.2397  -1.2280  -1.2276  -1.2200  -1.2193  -1.2192  -1.2189
    -1.2154  -1.2088  -1.2059  -1.1780  -1.1767  -1.1707  -1.1566  -1.1554
    -1.1450  -1.1402  -1.1379  -1.1335  -1.1300  -1.1250  -1.1245  -1.1217
    -1.1189  -1.1076  -1.1059  -1.0985  -1.0874  -1.0829  -1.0800  -1.0780
    -1.0772  -1.0757  -1.0725  -1.0629  -1.0579  -1.0550  -1.0537  -1.0509
    -1.0502  -1.0442  -1.0045  -0.9811  -0.9698  -0.9650  -0.9523  -0.9374
    -0.9358  -0.9293  -0.9246  -0.9208  -0.9161  -0.9078  -0.9003  -0.8820
    -0.8781  -0.8614  -0.8300  -0.8281  -0.8260  -0.7659  -0.6681  -0.6317
    -0.6016  -0.5946  -0.5467  -0.4528  -0.3797  -0.1936  -0.1602  -0.1189
    -0.0036   0.0221   0.0572   0.1552   0.1620   0.1919   0.2706   0.2882
     0.3155   0.3346   0.5887   0.5921   0.6430   0.6718   0.7319   0.7782
     0.8027   0.8035   0.9240   0.9706   0.9831   1.1553   1.1639   1.1984
     1.3017   1.3262   1.3632   1.3875   1.4795   1.5213   1.5257   1.7954
     1.8681   1.8790   1.8972   1.8999   1.9100   1.9752   1.9820   2.0315
     2.0616   2.0733   2.1943   2.4010   2.4063   2.4083   2.4468   2.4514
     2.6431   2.6540   2.6775   2.7098   2.7216   2.7961   2.8416   3.1810
     3.2035   3.2178   3.2817   3.3295   3.3641   3.3778   3.5443   3.5475
     3.5699   3.6169   3.6259   3.7992   3.8064   3.8938   3.9030   4.0004
     4.0226   4.1242   4.1803   4.2439   4.2474   4.2704   4.3018   4.3973
     4.4720   4.4973   4.5210   4.5648   4.6630   4.8052   4.8115   4.8410
     4.8498   4.8523   4.8939   4.9670   4.9890   5.0740   5.0907   5.1945
     5.2014   5.2118   5.2380   5.2618   5.3014   5.4403   5.4932   5.5255
     5.5326   5.5330   5.5444   5.6498   5.6731   5.7196   5.7318   5.8367
     5.8522   5.8739   5.8957   5.9064   5.9064   5.9800   5.9912   6.0158
     6.0172   6.0265   6.0329   6.0422   6.0869   6.1382   6.1418   6.1477
     6.1657   6.2221   6.2292   6.3071   6.4016   6.4092   6.4469   6.4473
     6.4738   6.5148   6.5237   6.5725   6.5878   6.6322   6.6407   6.6540
     6.6608   6.6908   6.7354   6.7482   6.7689   6.8237   6.8288   6.9307
     6.9365   6.9722   6.9727   6.9987   7.0274   7.0636   7.1003   7.1088
     7.1284   7.1636   7.1906   7.1920   7.1998   7.2023   7.2795   7.2909
     7.3065   7.3547   7.3591   7.4025   7.4172   7.4340   7.4641   7.5086
     7.5608   7.5675   7.6062   7.6175   7.6582   7.6583   7.6666   7.6693
     7.6929   7.6938   7.7179   7.7229   7.7376   7.7420   7.7924   7.8309
     7.8580   7.8671   7.8736   7.9402   7.9891   7.9963   8.0016   8.0249

     the Fermi energy is     0.7844 ev

!    total energy              =  -11427.09402146 Ry
     Harris-Foulkes estimate   =  -11427.09402177 Ry
     estimated scf accuracy    <       0.00000028 Ry

     The total energy is the sum of the following terms:

     one-electron contribution = -129707.70469069 Ry
     hartree contribution      =   65677.88989276 Ry
     xc contribution           =   -5523.82462614 Ry
     ewald contribution        =   58126.48229571 Ry
     smearing contrib. (-TS)   =       0.06310690 Ry

     convergence has been achieved in  25 iterations

     negative rho (up, down):  3.085E+00 0.000E+00

     Forces acting on atoms (cartesian axes, Ry/au):

     atom    1 type  1   force =    -0.00103091    0.00016264    0.00829976
     atom    2 type  1   force =    -0.00101953   -0.00021807    0.00802743
     atom    3 type  1   force =    -0.00015636    0.00022190    0.00894983
     atom    4 type  1   force =    -0.00015369   -0.00015982    0.00867114
     atom    5 type  1   force =     0.00007240    0.00025288    0.00902055
     atom    6 type  1   force =     0.00006864   -0.00013141    0.00874324
     atom    7 type  1   force =    -0.00007491    0.00023411    0.00899299
     atom    8 type  1   force =    -0.00007251   -0.00015092    0.00871647
     atom    9 type  1   force =     0.00010733    0.00023838    0.00898444
     atom   10 type  1   force =     0.00010314   -0.00015520    0.00871181
     atom   11 type  1   force =    -0.00008183    0.00024958    0.00902769
     atom   12 type  1   force =    -0.00007206   -0.00013968    0.00875000
     atom   13 type  1   force =     0.00078597    0.00026823    0.00879008
     atom   14 type  1   force =     0.00078337   -0.00011614    0.00851369
     atom   15 type  1   force =    -0.00131844    0.00040654   -0.00535417
     atom   16 type  1   force =    -0.00131159   -0.00005925   -0.00546556
     atom   17 type  1   force =    -0.00019467    0.00038265   -0.00539611
     atom   18 type  1   force =    -0.00018770   -0.00009761   -0.00550383
     atom   19 type  1   force =     0.00006534    0.00038261   -0.00535932
     atom   20 type  1   force =     0.00005843   -0.00009023   -0.00546233
     atom   21 type  1   force =    -0.00012502    0.00038674   -0.00531354
     atom   22 type  1   force =    -0.00012196   -0.00008975   -0.00542392
     atom   23 type  1   force =     0.00013932    0.00038765   -0.00530007
     atom   24 type  1   force =     0.00014172   -0.00008643   -0.00540795
     atom   25 type  1   force =    -0.00008860    0.00038056   -0.00532714
     atom   26 type  1   force =    -0.00009361   -0.00009549   -0.00543479
     atom   27 type  1   force =     0.00101989    0.00038103   -0.00532754
     atom   28 type  1   force =     0.00102801   -0.00009201   -0.00543654
     atom   29 type  1   force =    -0.00061698   -0.00011402    0.00852455
     atom   30 type  1   force =    -0.00061287   -0.00049510    0.00857468
     atom   31 type  1   force =    -0.00005358   -0.00013377    0.00875167
     atom   32 type  1   force =    -0.00004852   -0.00051555    0.00880252
     atom   33 type  1   force =     0.00012203   -0.00014386    0.00872128
     atom   34 type  1   force =     0.00012281   -0.00052703    0.00877367
     atom   35 type  1   force =     0.00000384   -0.00013043    0.00877302
     atom   36 type  1   force =     0.00000337   -0.00051233    0.00882066
     atom   37 type  1   force =    -0.00008732   -0.00013621    0.00872286
     atom   38 type  1   force =    -0.00008888   -0.00051929    0.00877481
     atom   39 type  1   force =     0.00011109   -0.00014723    0.00874658
     atom   40 type  1   force =     0.00011330   -0.00052302    0.00880273
     atom   41 type  1   force =     0.00088287   -0.00022930    0.00800808
     atom   42 type  1   force =     0.00088258   -0.00060726    0.00806639
     atom   43 type  1   force =    -0.00078208   -0.00011822   -0.00539940
     atom   44 type  1   force =    -0.00077878   -0.00061419   -0.00537163
     atom   45 type  1   force =    -0.00006727   -0.00011352   -0.00542367
     atom   46 type  1   force =    -0.00007153   -0.00061759   -0.00539616
     atom   47 type  1   force =     0.00013220   -0.00011355   -0.00537176
     atom   48 type  1   force =     0.00012707   -0.00060463   -0.00534348
     atom   49 type  1   force =    -0.00000145   -0.00011774   -0.00533474
     atom   50 type  1   force =     0.00000019   -0.00061336   -0.00531284
     atom   51 type  1   force =    -0.00009357   -0.00011326   -0.00534413
     atom   52 type  1   force =    -0.00009422   -0.00060869   -0.00531727
     atom   53 type  1   force =     0.00014315   -0.00012364   -0.00537815
     atom   54 type  1   force =     0.00014348   -0.00061642   -0.00534821
     atom   55 type  1   force =     0.00117254   -0.00008073   -0.00538306
     atom   56 type  1   force =     0.00117694   -0.00057425   -0.00535999
     atom   57 type  1   force =    -0.00099810    0.00068991   -0.00834595
     atom   58 type  1   force =    -0.00099310    0.00023387   -0.00802934
     atom   59 type  1   force =    -0.00021606    0.00063953   -0.00899669
     atom   60 type  1   force =    -0.00021465    0.00018064   -0.00867673
     atom   61 type  1   force =    -0.00001994    0.00060958   -0.00905888
     atom   62 type  1   force =    -0.00002452    0.00015246   -0.00873922
     atom   63 type  1   force =    -0.00013475    0.00062628   -0.00901408
     atom   64 type  1   force =    -0.00013450    0.00016944   -0.00869529
     atom   65 type  1   force =     0.00012344    0.00063225   -0.00901421
     atom   66 type  1   force =     0.00012268    0.00016765   -0.00869723
     atom   67 type  1   force =     0.00000337    0.00061546   -0.00905441
     atom   68 type  1   force =     0.00000228    0.00015571   -0.00873619
     atom   69 type  1   force =     0.00087373    0.00059873   -0.00882702
     atom   70 type  1   force =     0.00087019    0.00013446   -0.00850754
     atom   71 type  1   force =    -0.00078300    0.00075214    0.00512134
     atom   72 type  1   force =    -0.00078719    0.00022836    0.00528348
     atom   73 type  1   force =    -0.00011455    0.00075722    0.00520376
     atom   74 type  1   force =    -0.00011901    0.00023186    0.00536736
     atom   75 type  1   force =     0.00008080    0.00074162    0.00525605
     atom   76 type  1   force =     0.00009280    0.00023372    0.00541721
     atom   77 type  1   force =    -0.00001294    0.00075068    0.00528029
     atom   78 type  1   force =    -0.00001296    0.00022896    0.00543746
     atom   79 type  1   force =    -0.00007499    0.00074906    0.00526939
     atom   80 type  1   force =    -0.00007129    0.00022344    0.00542808
     atom   81 type  1   force =     0.00018937    0.00076185    0.00521671
     atom   82 type  1   force =     0.00018889    0.00024028    0.00538320
     atom   83 type  1   force =     0.00120130    0.00070945    0.00513471
     atom   84 type  1   force =     0.00120094    0.00019376    0.00529900
     atom   85 type  1   force =    -0.00130391    0.00004133    0.00527950
     atom   86 type  1   force =    -0.00130299   -0.00073895    0.00545831
     atom   87 type  1   force =    -0.00021487    0.00007701    0.00532982
     atom   88 type  1   force =    -0.00021928   -0.00071259    0.00550974
     atom   89 type  1   force =     0.00000731    0.00007476    0.00538645
     atom   90 type  1   force =     0.00001502   -0.00071218    0.00556483
     atom   91 type  1   force =    -0.00014920    0.00006112    0.00543867
     atom   92 type  1   force =    -0.00014765   -0.00072321    0.00560697
     atom   93 type  1   force =     0.00014813    0.00006223    0.00544471
     atom   94 type  1   force =     0.00014755   -0.00071662    0.00561756
     atom   95 type  1   force =    -0.00005851    0.00006958    0.00541451
     atom   96 type  1   force =    -0.00005575   -0.00071238    0.00558403
     atom   97 type  1   force =     0.00106744    0.00007191    0.00531387
     atom   98 type  1   force =     0.00107012   -0.00071286    0.00548945
     atom   99 type  1   force =    -0.00062861    0.00010822   -0.00850954
     atom  100 type  1   force =    -0.00063104   -0.00028381   -0.00857187
     atom  101 type  1   force =    -0.00013595    0.00013090   -0.00873927
     atom  102 type  1   force =    -0.00013519   -0.00026295   -0.00879826
     atom  103 type  1   force =     0.00003945    0.00014094   -0.00869591
     atom  104 type  1   force =     0.00003976   -0.00025229   -0.00875865
     atom  105 type  1   force =    -0.00001836    0.00012806   -0.00873303
     atom  106 type  1   force =    -0.00001524   -0.00026356   -0.00879458
     atom  107 type  1   force =    -0.00003246    0.00013632   -0.00869715
     atom  108 type  1   force =    -0.00003495   -0.00025815   -0.00875440
     atom  109 type  1   force =     0.00020237    0.00013802   -0.00871986
     atom  110 type  1   force =     0.00019782   -0.00025212   -0.00878612
     atom  111 type  1   force =     0.00094751    0.00022369   -0.00799328
     atom  112 type  1   force =     0.00095271   -0.00016010   -0.00805712

     Total force =     0.076766     Total SCF correction =     0.003103

     Writing output data file ./ausurf.save/
 
     init_run     :     15.13s CPU     15.81s WALL (       1 calls)
     electrons    :   1018.02s CPU   1049.97s WALL (       1 calls)
     forces       :      9.30s CPU      9.64s WALL (       1 calls)

     Called by init_run:
     wfcinit      :     12.62s CPU     12.99s WALL (       1 calls)
     potinit      :      0.44s CPU      0.49s WALL (       1 calls)
     hinit0       :      0.60s CPU      0.64s WALL (       1 calls)

     Called by electrons:
     c_bands      :    908.88s CPU    934.30s WALL (      26 calls)
     sum_band     :     92.19s CPU     95.49s WALL (      26 calls)
     v_of_rho     :      5.23s CPU      5.56s WALL (      26 calls)
     newd         :     10.22s CPU     13.03s WALL (      26 calls)
     mix_rho      :      1.18s CPU      1.22s WALL (      26 calls)

     Called by c_bands:
     init_us_2    :      5.60s CPU      5.74s WALL (     108 calls)
     cegterg      :    891.26s CPU    916.20s WALL (      52 calls)

     Called by sum_band:
     sum_band:bec :      0.70s CPU      0.70s WALL (      52 calls)
     addusdens    :      9.54s CPU     11.82s WALL (      26 calls)

     Called by *egterg:
     h_psi        :    329.86s CPU    336.18s WALL (     230 calls)
     s_psi        :     90.88s CPU     91.39s WALL (     230 calls)
     g_psi        :      1.81s CPU      1.84s WALL (     176 calls)
     cdiaghg      :    170.39s CPU    181.23s WALL (     226 calls)

     Called by h_psi:
     h_psi:calbec :     93.12s CPU     93.82s WALL (     230 calls)
     vloc_psi     :    142.79s CPU    145.50s WALL (     230 calls)
     add_vuspsi   :     91.37s CPU     92.15s WALL (     230 calls)

     General routines
     calbec       :    139.07s CPU    140.07s WALL (     290 calls)
     fft          :      5.54s CPU      5.65s WALL (     348 calls)
     ffts         :      0.15s CPU      0.16s WALL (      52 calls)
     fftw         :    158.75s CPU    161.73s WALL (  232722 calls)
     interpolate  :      0.51s CPU      0.52s WALL (      26 calls)
 
     Parallel routines
     fft_scatt_xy :     25.50s CPU     25.99s WALL (  233122 calls)
     fft_scatt_yz :     60.08s CPU     61.42s WALL (  233122 calls)
 
     PWSCF        :  17m24.47s CPU  18m46.87s WALL

 
   This run was terminated on:  12:40: 5  16Jul2020            

=------------------------------------------------------------------------------=
   JOB DONE.
=------------------------------------------------------------------------------=
