
     Program PWSCF v.6.5 starts on 16Jul2020 at 14:11:35 

     This program is part of the open-source Quantum ESPRESSO suite
     for quantum simulation of materials; please cite
         "P. Giannozzi et al., J. Phys.:Condens. Matter 21 395502 (2009);
         "P. Giannozzi et al., J. Phys.:Condens. Matter 29 465901 (2017);
          URL http://www.quantum-espresso.org", 
     in publications or presentations arising from this work. More details at
     http://www.quantum-espresso.org/quote

     Parallel version (MPI & OpenMP), running on     288 processor cores
     Number of MPI processes:               288
     Threads/MPI process:                     1

     MPI processes distributed on     8 nodes
     R & G space division:  proc/nbgrp/npool/nimage =     288
     Reading input from ausurf_rmm.in

     Current dimensions of program PWSCF are:
     Max number of different atomic species (ntypx) = 10
     Max number of k-points (npk) =  40000
     Max angular momentum in pseudopotentials (lmaxx) =  3

     Subspace diagonalization in iterative solution of the eigenvalue problem:
     one sub-group per band group will be used
     scalapack distributed-memory algorithm (size of sub-group: 16* 16 procs)

 
     Parallelization info
     --------------------
     sticks:   dense  smooth     PW     G-vecs:    dense   smooth      PW
     Min          41      20      5                 7483     2640     343
     Max          42      21      6                 7505     2663     358
     Sum       11837    5915   1537              2158381   763307  100747
 

     Title: 
      DEISA pw benchmark                                                        


     bravais-lattice index     =            8
     lattice parameter (alat)  =      38.7583  a.u.
     unit-cell volume          =   45191.4962 (a.u.)^3
     number of atoms/cell      =          112
     number of atomic types    =            1
     number of electrons       =      1232.00
     number of Kohn-Sham states=          800
     kinetic-energy cutoff     =      25.0000  Ry
     charge density cutoff     =     200.0000  Ry
     convergence threshold     =      1.0E-06
     mixing beta               =       0.7000
     number of iterations used =            8  plain     mixing
     Exchange-correlation=  SLA  PW   PBE  PBE
                           (   1   4   3   4   0   0   0)

     celldm(1)=  38.758300  celldm(2)=   0.494393  celldm(3)=   1.569966
     celldm(4)=   0.000000  celldm(5)=   0.000000  celldm(6)=   0.000000

     crystal axes: (cart. coord. in units of alat)
               a(1) = (   1.000000   0.000000   0.000000 )  
               a(2) = (   0.000000   0.494393   0.000000 )  
               a(3) = (   0.000000   0.000000   1.569966 )  

     reciprocal axes: (cart. coord. in units 2 pi/alat)
               b(1) = (  1.000000  0.000000  0.000000 )  
               b(2) = (  0.000000  2.022682  0.000000 )  
               b(3) = (  0.000000  0.000000  0.636956 )  


     PseudoPot. # 1 for Au read from file:
     ./Au.pbe-nd-van.UPF
     MD5 check sum: deb5c07af10777505a79e28f5b4b4115
     Pseudo is Ultrasoft + core correction, Zval = 11.0
     Generated by new atomic code, or converted to UPF format
     Using radial grid of  985 points,  3 beta functions with: 
                l(1) =   1
                l(2) =   2
                l(3) =   2
     Q(r) pseudized with  8 coefficients,  rinner =    1.100   1.100   1.100
                                                       1.100   1.100

     atomic species   valence    mass     pseudopotential
        AU            11.00   196.96000     Au( 1.00)

     No symmetry found



   Cartesian axes

     site n.     atom                  positions (alat units)
         1           AU  tau(   1) = (   1.4278395   1.9784974   0.3497317  )
         2           AU  tau(   2) = (   1.4278395   1.7313987   0.3497317  )
         3           AU  tau(   3) = (   1.5706478   1.9784974   0.3497317  )
         4           AU  tau(   4) = (   1.5706478   1.7313987   0.3497317  )
         5           AU  tau(   5) = (   1.7134072   1.9784974   0.3497317  )
         6           AU  tau(   6) = (   1.7134072   1.7313987   0.3497317  )
         7           AU  tau(   7) = (   1.8562156   1.9784974   0.3497317  )
         8           AU  tau(   8) = (   1.8562156   1.7313987   0.3497317  )
         9           AU  tau(   9) = (   1.9989753   1.9784974   0.3497317  )
        10           AU  tau(  10) = (   1.9989753   1.7313987   0.3497317  )
        11           AU  tau(  11) = (   2.1417836   1.9784974   0.3497317  )
        12           AU  tau(  12) = (   2.1417836   1.7313987   0.3497317  )
        13           AU  tau(  13) = (   2.2845431   1.9784974   0.3497317  )
        14           AU  tau(  14) = (   2.2845431   1.7313987   0.3497317  )
        15           AU  tau(  15) = (   1.4278395   2.0609450   0.2331545  )
        16           AU  tau(  16) = (   1.4278395   1.8138461   0.2331545  )
        17           AU  tau(  17) = (   1.5706478   2.0609450   0.2331545  )
        18           AU  tau(  18) = (   1.5706478   1.8138461   0.2331545  )
        19           AU  tau(  19) = (   1.7134072   2.0609450   0.2331545  )
        20           AU  tau(  20) = (   1.7134072   1.8138461   0.2331545  )
        21           AU  tau(  21) = (   1.8562156   2.0609450   0.2331545  )
        22           AU  tau(  22) = (   1.8562156   1.8138461   0.2331545  )
        23           AU  tau(  23) = (   1.9989753   2.0609450   0.2331545  )
        24           AU  tau(  24) = (   1.9989753   1.8138461   0.2331545  )
        25           AU  tau(  25) = (   2.1417836   2.0609450   0.2331545  )
        26           AU  tau(  26) = (   2.1417836   1.8138461   0.2331545  )
        27           AU  tau(  27) = (   2.2845431   2.0609450   0.2331545  )
        28           AU  tau(  28) = (   2.2845431   1.8138461   0.2331545  )
        29           AU  tau(  29) = (   1.4992193   2.1021445   0.3497317  )
        30           AU  tau(  30) = (   1.4992193   1.8550456   0.3497317  )
        31           AU  tau(  31) = (   1.6420276   2.1021445   0.3497317  )
        32           AU  tau(  32) = (   1.6420276   1.8550456   0.3497317  )
        33           AU  tau(  33) = (   1.7847871   2.1021445   0.3497317  )
        34           AU  tau(  34) = (   1.7847871   1.8550456   0.3497317  )
        35           AU  tau(  35) = (   1.9275954   2.1021445   0.3497317  )
        36           AU  tau(  36) = (   1.9275954   1.8550456   0.3497317  )
        37           AU  tau(  37) = (   2.0704038   2.1021445   0.3497317  )
        38           AU  tau(  38) = (   2.0704038   1.8550456   0.3497317  )
        39           AU  tau(  39) = (   2.2131632   2.1021445   0.3497317  )
        40           AU  tau(  40) = (   2.2131632   1.8550456   0.3497317  )
        41           AU  tau(  41) = (   2.3559716   2.1021445   0.3497317  )
        42           AU  tau(  42) = (   2.3559716   1.8550456   0.3497317  )
        43           AU  tau(  43) = (   1.4992193   1.6901992   0.2331545  )
        44           AU  tau(  44) = (   1.4992193   1.9374930   0.2331545  )
        45           AU  tau(  45) = (   1.6420276   1.6901992   0.2331545  )
        46           AU  tau(  46) = (   1.6420276   1.9374930   0.2331545  )
        47           AU  tau(  47) = (   1.7847871   1.6901992   0.2331545  )
        48           AU  tau(  48) = (   1.7847871   1.9374930   0.2331545  )
        49           AU  tau(  49) = (   1.9275954   1.6901992   0.2331545  )
        50           AU  tau(  50) = (   1.9275954   1.9374930   0.2331545  )
        51           AU  tau(  51) = (   2.0704038   1.6901992   0.2331545  )
        52           AU  tau(  52) = (   2.0704038   1.9374930   0.2331545  )
        53           AU  tau(  53) = (   2.2131632   1.6901992   0.2331545  )
        54           AU  tau(  54) = (   2.2131632   1.9374930   0.2331545  )
        55           AU  tau(  55) = (   2.3559716   1.6901992   0.2331545  )
        56           AU  tau(  56) = (   2.3559716   1.9374930   0.2331545  )
        57           AU  tau(  57) = (   1.4278395   1.9784974   0.0000000  )
        58           AU  tau(  58) = (   1.4278395   1.7313987   0.0000000  )
        59           AU  tau(  59) = (   1.5706478   1.9784974   0.0000000  )
        60           AU  tau(  60) = (   1.5706478   1.7313987   0.0000000  )
        61           AU  tau(  61) = (   1.7134072   1.9784974   0.0000000  )
        62           AU  tau(  62) = (   1.7134072   1.7313987   0.0000000  )
        63           AU  tau(  63) = (   1.8562156   1.9784974   0.0000000  )
        64           AU  tau(  64) = (   1.8562156   1.7313987   0.0000000  )
        65           AU  tau(  65) = (   1.9989753   1.9784974   0.0000000  )
        66           AU  tau(  66) = (   1.9989753   1.7313987   0.0000000  )
        67           AU  tau(  67) = (   2.1417836   1.9784974   0.0000000  )
        68           AU  tau(  68) = (   2.1417836   1.7313987   0.0000000  )
        69           AU  tau(  69) = (   2.2845431   1.9784974   0.0000000  )
        70           AU  tau(  70) = (   2.2845431   1.7313987   0.0000000  )
        71           AU  tau(  71) = (   1.4992193   2.0196968   0.1165772  )
        72           AU  tau(  72) = (   1.4992193   1.7725979   0.1165772  )
        73           AU  tau(  73) = (   1.6420276   2.0196968   0.1165772  )
        74           AU  tau(  74) = (   1.6420276   1.7725979   0.1165772  )
        75           AU  tau(  75) = (   1.7847871   2.0196968   0.1165772  )
        76           AU  tau(  76) = (   1.7847871   1.7725979   0.1165772  )
        77           AU  tau(  77) = (   1.9275954   2.0196968   0.1165772  )
        78           AU  tau(  78) = (   1.9275954   1.7725979   0.1165772  )
        79           AU  tau(  79) = (   2.0704038   2.0196968   0.1165772  )
        80           AU  tau(  80) = (   2.0704038   1.7725979   0.1165772  )
        81           AU  tau(  81) = (   2.2131632   2.0196968   0.1165772  )
        82           AU  tau(  82) = (   2.2131632   1.7725979   0.1165772  )
        83           AU  tau(  83) = (   2.3559716   2.0196968   0.1165772  )
        84           AU  tau(  84) = (   2.3559716   1.7725979   0.1165772  )
        85           AU  tau(  85) = (   1.4278395   2.1433437   0.1165772  )
        86           AU  tau(  86) = (   1.4278395   1.8962938   0.1165772  )
        87           AU  tau(  87) = (   1.5706478   2.1433437   0.1165772  )
        88           AU  tau(  88) = (   1.5706478   1.8962938   0.1165772  )
        89           AU  tau(  89) = (   1.7134072   2.1433437   0.1165772  )
        90           AU  tau(  90) = (   1.7134072   1.8962938   0.1165772  )
        91           AU  tau(  91) = (   1.8562156   2.1433437   0.1165772  )
        92           AU  tau(  92) = (   1.8562156   1.8962938   0.1165772  )
        93           AU  tau(  93) = (   1.9989753   2.1433437   0.1165772  )
        94           AU  tau(  94) = (   1.9989753   1.8962938   0.1165772  )
        95           AU  tau(  95) = (   2.1417836   2.1433437   0.1165772  )
        96           AU  tau(  96) = (   2.1417836   1.8962938   0.1165772  )
        97           AU  tau(  97) = (   2.2845431   2.1433437   0.1165772  )
        98           AU  tau(  98) = (   2.2845431   1.8962938   0.1165772  )
        99           AU  tau(  99) = (   1.4992193   2.1021445   0.0000000  )
       100           AU  tau( 100) = (   1.4992193   1.8550456   0.0000000  )
       101           AU  tau( 101) = (   1.6420276   2.1021445   0.0000000  )
       102           AU  tau( 102) = (   1.6420276   1.8550456   0.0000000  )
       103           AU  tau( 103) = (   1.7847871   2.1021445   0.0000000  )
       104           AU  tau( 104) = (   1.7847871   1.8550456   0.0000000  )
       105           AU  tau( 105) = (   1.9275954   2.1021445   0.0000000  )
       106           AU  tau( 106) = (   1.9275954   1.8550456   0.0000000  )
       107           AU  tau( 107) = (   2.0704038   2.1021445   0.0000000  )
       108           AU  tau( 108) = (   2.0704038   1.8550456   0.0000000  )
       109           AU  tau( 109) = (   2.2131632   2.1021445   0.0000000  )
       110           AU  tau( 110) = (   2.2131632   1.8550456   0.0000000  )
       111           AU  tau( 111) = (   2.3559716   2.1021445   0.0000000  )
       112           AU  tau( 112) = (   2.3559716   1.8550456   0.0000000  )

     number of k points=     2  Marzari-Vanderbilt smearing, width (Ry)=  0.0500
                       cart. coord. in units 2pi/alat
        k(    1) = (   0.2500000   0.5056706   0.0000000), wk =   1.0000000
        k(    2) = (  -0.2500000   0.5056706   0.0000000), wk =   1.0000000

     Dense  grid:  2158381 G-vectors     FFT dimensions: ( 180,  90, 288)

     Smooth grid:   763307 G-vectors     FFT dimensions: ( 125,  64, 200)

     Estimated max dynamical RAM per process >     112.24 MB

     Estimated total dynamical RAM >      31.57 GB

     Initial potential from superposition of free atoms

     starting charge 1230.69946, renormalised to 1232.00000

     negative rho (up, down):  3.043E+00 0.000E+00
     Starting wfcs are 1008 randomized atomic wfcs

     total cpu time spent up to now is        6.5 secs

     Self-consistent Calculation

     iteration #  1     ecut=    25.00 Ry     beta= 0.70
     RMM-DIIS diagonalization
     ethr =  1.00E-02,  avg # of iterations =  1.9

     Threshold (ethr) on eigenvalues was too large:
     Diagonalizing with lowered threshold

     RMM-DIIS diagonalization
     ethr =  3.13E-04,  avg # of iterations =  2.8

     negative rho (up, down):  2.995E+00 0.000E+00

     total cpu time spent up to now is       25.8 secs

     total energy              =  -11423.76240276 Ry
     Harris-Foulkes estimate   =  -11428.38280595 Ry
     estimated scf accuracy    <       5.88588992 Ry

     iteration #  2     ecut=    25.00 Ry     beta= 0.70
     RMM-DIIS diagonalization
     ethr =  4.78E-04,  avg # of iterations =  4.0

     negative rho (up, down):  3.010E+00 0.000E+00

     total cpu time spent up to now is       38.3 secs

     total energy              =  -11411.89713688 Ry
     Harris-Foulkes estimate   =  -11438.90703941 Ry
     estimated scf accuracy    <     154.01251024 Ry

     iteration #  3     ecut=    25.00 Ry     beta= 0.70
     RMM-DIIS diagonalization
     ethr =  4.78E-04,  avg # of iterations =  3.6

     negative rho (up, down):  3.050E+00 0.000E+00

     total cpu time spent up to now is       49.7 secs

     total energy              =  -11426.41301411 Ry
     Harris-Foulkes estimate   =  -11427.77023989 Ry
     estimated scf accuracy    <       3.67942483 Ry

     iteration #  4     ecut=    25.00 Ry     beta= 0.70
     RMM-DIIS diagonalization
     ethr =  2.99E-04,  avg # of iterations =  2.7

     negative rho (up, down):  3.057E+00 0.000E+00

     total cpu time spent up to now is       58.8 secs

     total energy              =  -11426.55847465 Ry
     Harris-Foulkes estimate   =  -11427.27478224 Ry
     estimated scf accuracy    <       4.36812274 Ry

     iteration #  5     ecut=    25.00 Ry     beta= 0.70
     RMM-DIIS diagonalization
     ethr =  2.99E-04,  avg # of iterations =  2.6

     negative rho (up, down):  3.074E+00 0.000E+00

     total cpu time spent up to now is       67.4 secs

     total energy              =  -11426.89423265 Ry
     Harris-Foulkes estimate   =  -11427.28369962 Ry
     estimated scf accuracy    <       3.77381271 Ry

     iteration #  6     ecut=    25.00 Ry     beta= 0.70
     RMM-DIIS diagonalization
     ethr =  2.99E-04,  avg # of iterations =  2.5

     negative rho (up, down):  3.078E+00 0.000E+00

     total cpu time spent up to now is       75.7 secs

     total energy              =  -11427.06960589 Ry
     Harris-Foulkes estimate   =  -11427.09139305 Ry
     estimated scf accuracy    <       0.08451523 Ry

     iteration #  7     ecut=    25.00 Ry     beta= 0.70
     RMM-DIIS diagonalization
     ethr =  6.86E-06,  avg # of iterations =  3.5

     negative rho (up, down):  3.081E+00 0.000E+00

     total cpu time spent up to now is       86.8 secs

     total energy              =  -11427.04245521 Ry
     Harris-Foulkes estimate   =  -11427.13616932 Ry
     estimated scf accuracy    <       0.89701505 Ry

     iteration #  8     ecut=    25.00 Ry     beta= 0.70
     RMM-DIIS diagonalization
     ethr =  6.86E-06,  avg # of iterations =  2.8

     negative rho (up, down):  3.084E+00 0.000E+00

     total cpu time spent up to now is       96.1 secs

     total energy              =  -11427.07460691 Ry
     Harris-Foulkes estimate   =  -11427.11356495 Ry
     estimated scf accuracy    <       0.32498440 Ry

     iteration #  9     ecut=    25.00 Ry     beta= 0.70
     RMM-DIIS diagonalization
     ethr =  6.86E-06,  avg # of iterations =  2.7

     negative rho (up, down):  3.084E+00 0.000E+00

     total cpu time spent up to now is      105.0 secs

     total energy              =  -11427.09268012 Ry
     Harris-Foulkes estimate   =  -11427.09383133 Ry
     estimated scf accuracy    <       0.00394188 Ry

     iteration # 10     ecut=    25.00 Ry     beta= 0.70
     RMM-DIIS diagonalization
     ethr =  3.20E-07,  avg # of iterations =  3.5

     negative rho (up, down):  3.083E+00 0.000E+00

     total cpu time spent up to now is      116.1 secs

     total energy              =  -11427.09324127 Ry
     Harris-Foulkes estimate   =  -11427.09460123 Ry
     estimated scf accuracy    <       0.00628178 Ry

     iteration # 11     ecut=    25.00 Ry     beta= 0.70
     RMM-DIIS diagonalization
     ethr =  3.20E-07,  avg # of iterations =  2.7

     negative rho (up, down):  3.084E+00 0.000E+00

     total cpu time spent up to now is      125.5 secs

     total energy              =  -11427.09319792 Ry
     Harris-Foulkes estimate   =  -11427.09465579 Ry
     estimated scf accuracy    <       0.00968345 Ry

     iteration # 12     ecut=    25.00 Ry     beta= 0.70
     RMM-DIIS diagonalization
     ethr =  3.20E-07,  avg # of iterations =  2.7

     negative rho (up, down):  3.084E+00 0.000E+00

     total cpu time spent up to now is      134.4 secs

     total energy              =  -11427.09341327 Ry
     Harris-Foulkes estimate   =  -11427.09444669 Ry
     estimated scf accuracy    <       0.00795328 Ry

     iteration # 13     ecut=    25.00 Ry     beta= 0.70
     RMM-DIIS diagonalization
     ethr =  3.20E-07,  avg # of iterations =  2.7

     negative rho (up, down):  3.084E+00 0.000E+00

     total cpu time spent up to now is      143.5 secs

     total energy              =  -11427.09390914 Ry
     Harris-Foulkes estimate   =  -11427.09412721 Ry
     estimated scf accuracy    <       0.00108550 Ry

     iteration # 14     ecut=    25.00 Ry     beta= 0.70
     RMM-DIIS diagonalization
     ethr =  8.81E-08,  avg # of iterations =  2.7

     negative rho (up, down):  3.085E+00 0.000E+00

     total cpu time spent up to now is      152.6 secs

     total energy              =  -11427.09400115 Ry
     Harris-Foulkes estimate   =  -11427.09402508 Ry
     estimated scf accuracy    <       0.00007987 Ry

     iteration # 15     ecut=    25.00 Ry     beta= 0.70
     RMM-DIIS diagonalization
     ethr =  6.48E-09,  avg # of iterations =  2.8

     negative rho (up, down):  3.085E+00 0.000E+00

     total cpu time spent up to now is      161.9 secs

     total energy              =  -11427.09400880 Ry
     Harris-Foulkes estimate   =  -11427.09402386 Ry
     estimated scf accuracy    <       0.00009481 Ry

     iteration # 16     ecut=    25.00 Ry     beta= 0.70
     RMM-DIIS diagonalization
     ethr =  6.48E-09,  avg # of iterations =  2.7

     negative rho (up, down):  3.085E+00 0.000E+00

     total cpu time spent up to now is      172.0 secs

     total energy              =  -11427.09401082 Ry
     Harris-Foulkes estimate   =  -11427.09402674 Ry
     estimated scf accuracy    <       0.00010121 Ry

     iteration # 17     ecut=    25.00 Ry     beta= 0.70
     RMM-DIIS diagonalization
     ethr =  6.48E-09,  avg # of iterations =  2.7

     negative rho (up, down):  3.085E+00 0.000E+00

     total cpu time spent up to now is      181.0 secs

     total energy              =  -11427.09400510 Ry
     Harris-Foulkes estimate   =  -11427.09403085 Ry
     estimated scf accuracy    <       0.00017688 Ry

     iteration # 18     ecut=    25.00 Ry     beta= 0.70
     RMM-DIIS diagonalization
     ethr =  6.48E-09,  avg # of iterations =  2.7

     negative rho (up, down):  3.085E+00 0.000E+00

     total cpu time spent up to now is      189.8 secs

     total energy              =  -11427.09400573 Ry
     Harris-Foulkes estimate   =  -11427.09403708 Ry
     estimated scf accuracy    <       0.00034112 Ry

     iteration # 19     ecut=    25.00 Ry     beta= 0.70
     RMM-DIIS diagonalization
     ethr =  6.48E-09,  avg # of iterations =  2.7

     negative rho (up, down):  3.085E+00 0.000E+00

     total cpu time spent up to now is      198.6 secs

     total energy              =  -11427.09402027 Ry
     Harris-Foulkes estimate   =  -11427.09402221 Ry
     estimated scf accuracy    <       0.00000759 Ry

     iteration # 20     ecut=    25.00 Ry     beta= 0.70
     RMM-DIIS diagonalization
     ethr =  6.16E-10,  avg # of iterations =  2.7

     negative rho (up, down):  3.085E+00 0.000E+00

     total cpu time spent up to now is      207.7 secs

     total energy              =  -11427.09402110 Ry
     Harris-Foulkes estimate   =  -11427.09402178 Ry
     estimated scf accuracy    <       0.00000295 Ry

     iteration # 21     ecut=    25.00 Ry     beta= 0.70
     RMM-DIIS diagonalization
     ethr =  2.40E-10,  avg # of iterations =  2.7

     negative rho (up, down):  3.085E+00 0.000E+00

     total cpu time spent up to now is      216.9 secs

     total energy              =  -11427.09402125 Ry
     Harris-Foulkes estimate   =  -11427.09402181 Ry
     estimated scf accuracy    <       0.00000359 Ry

     iteration # 22     ecut=    25.00 Ry     beta= 0.70
     RMM-DIIS diagonalization
     ethr =  2.40E-10,  avg # of iterations =  2.7

     negative rho (up, down):  3.085E+00 0.000E+00

     total cpu time spent up to now is      225.8 secs

     total energy              =  -11427.09402150 Ry
     Harris-Foulkes estimate   =  -11427.09402171 Ry
     estimated scf accuracy    <       0.00000174 Ry

     iteration # 23     ecut=    25.00 Ry     beta= 0.70
     RMM-DIIS diagonalization
     ethr =  1.41E-10,  avg # of iterations =  2.7

     negative rho (up, down):  3.085E+00 0.000E+00

     total cpu time spent up to now is      234.6 secs

     End of self-consistent calculation

          k = 0.2500 0.5057 0.0000 ( 95386 PWs)   bands (ev):

    -8.0048  -7.7854  -7.3694  -7.1564  -6.9588  -6.8864  -6.8074  -6.6746
    -6.6108  -6.2900  -6.2193  -6.1890  -6.1050  -6.0373  -5.9302  -5.9279
    -5.8887  -5.8391  -5.8309  -5.8249  -5.7939  -5.7360  -5.7239  -5.6814
    -5.6674  -5.6495  -5.6453  -5.6401  -5.5498  -5.5384  -5.5309  -5.5226
    -5.5164  -5.5072  -5.4892  -5.4812  -5.4629  -5.4594  -5.4282  -5.3751
    -5.3690  -5.3537  -5.3515  -5.3170  -5.3099  -5.2938  -5.2912  -5.2337
    -5.2326  -5.2326  -5.2282  -5.2183  -5.1997  -5.1786  -5.1554  -5.1446
    -5.1298  -5.1244  -5.1156  -5.1141  -5.1105  -5.1092  -5.0880  -5.0675
    -5.0647  -5.0570  -5.0559  -5.0488  -5.0407  -5.0376  -5.0304  -4.9877
    -4.9820  -4.9668  -4.9637  -4.9480  -4.9342  -4.9323  -4.9288  -4.9268
    -4.9176  -4.9159  -4.9068  -4.9039  -4.8858  -4.8853  -4.8817  -4.8718
    -4.8718  -4.8620  -4.8595  -4.8487  -4.8279  -4.8269  -4.8247  -4.8220
    -4.7418  -4.7392  -4.7376  -4.7367  -4.7328  -4.7254  -4.7210  -4.7208
    -4.7201  -4.7120  -4.6994  -4.6847  -4.6741  -4.6165  -4.6000  -4.5970
    -4.5933  -4.5849  -4.5624  -4.5610  -4.5573  -4.5267  -4.4705  -4.4694
    -4.4508  -4.4137  -4.3979  -4.3950  -4.3934  -4.3931  -4.3916  -4.3853
    -4.3552  -4.3456  -4.3450  -4.3370  -4.3255  -4.3229  -4.3201  -4.3035
    -4.3020  -4.2738  -4.2644  -4.2573  -4.2476  -4.2451  -4.2293  -4.2105
    -4.1937  -4.1678  -4.1561  -4.1549  -4.1545  -4.1530  -4.1482  -4.1394
    -4.1372  -4.1044  -4.0971  -4.0833  -4.0773  -4.0761  -4.0698  -4.0543
    -4.0505  -4.0352  -4.0306  -4.0239  -4.0212  -4.0171  -4.0084  -3.9938
    -3.9867  -3.9706  -3.9585  -3.9274  -3.9139  -3.8985  -3.8930  -3.8895
    -3.8709  -3.8706  -3.8610  -3.8373  -3.8365  -3.8328  -3.8164  -3.8083
    -3.7859  -3.7800  -3.7391  -3.7357  -3.7264  -3.7240  -3.7148  -3.7101
    -3.7008  -3.6851  -3.6806  -3.6711  -3.6588  -3.6404  -3.6191  -3.6191
    -3.6171  -3.6161  -3.6054  -3.6017  -3.5990  -3.5951  -3.5916  -3.5796
    -3.5697  -3.5669  -3.5644  -3.5594  -3.5574  -3.5508  -3.5457  -3.5447
    -3.5434  -3.5341  -3.5235  -3.4922  -3.4821  -3.4562  -3.4539  -3.4428
    -3.4424  -3.4404  -3.4391  -3.4260  -3.4212  -3.4126  -3.4050  -3.3969
    -3.3877  -3.3796  -3.3739  -3.3718  -3.3702  -3.3694  -3.3642  -3.3562
    -3.3524  -3.3373  -3.3355  -3.3268  -3.3259  -3.3243  -3.3198  -3.3170
    -3.3133  -3.3129  -3.3090  -3.3085  -3.2996  -3.2968  -3.2918  -3.2859
    -3.2813  -3.2793  -3.2589  -3.2496  -3.2467  -3.2437  -3.2380  -3.2287
    -3.2195  -3.2188  -3.2141  -3.2101  -3.2021  -3.1996  -3.1888  -3.1804
    -3.1789  -3.1731  -3.1720  -3.1683  -3.1668  -3.1591  -3.1580  -3.1457
    -3.1456  -3.1215  -3.1211  -3.1105  -3.0981  -3.0905  -3.0842  -3.0579
    -3.0412  -3.0399  -3.0344  -3.0332  -3.0261  -3.0238  -3.0230  -3.0180
    -3.0172  -3.0162  -3.0154  -3.0090  -3.0023  -3.0014  -2.9892  -2.9847
    -2.9817  -2.9806  -2.9800  -2.9749  -2.9748  -2.9709  -2.9685  -2.9507
    -2.9150  -2.9129  -2.8900  -2.8757  -2.8741  -2.8622  -2.8596  -2.8492
    -2.8474  -2.8279  -2.8219  -2.8204  -2.7996  -2.7961  -2.7954  -2.7829
    -2.7796  -2.7752  -2.7673  -2.7640  -2.7501  -2.7490  -2.7467  -2.7420
    -2.7231  -2.7223  -2.7205  -2.7179  -2.6627  -2.6542  -2.6461  -2.6365
    -2.6294  -2.6260  -2.6214  -2.5954  -2.5800  -2.5697  -2.5673  -2.5668
    -2.5634  -2.5589  -2.5530  -2.5407  -2.5280  -2.5251  -2.5194  -2.5160
    -2.5089  -2.5071  -2.5010  -2.4928  -2.4898  -2.4862  -2.4803  -2.4791
    -2.4731  -2.4722  -2.4664  -2.4656  -2.4597  -2.4490  -2.4352  -2.4346
    -2.4063  -2.4000  -2.3982  -2.3742  -2.3702  -2.3631  -2.3558  -2.3557
    -2.3486  -2.3451  -2.3355  -2.3323  -2.3152  -2.3002  -2.2927  -2.2718
    -2.2684  -2.2666  -2.2636  -2.2487  -2.2432  -2.2334  -2.2316  -2.2149
    -2.2125  -2.2054  -2.2051  -2.1978  -2.1969  -2.1781  -2.1448  -2.1360
    -2.1303  -2.1057  -2.1022  -2.0847  -2.0674  -2.0483  -2.0474  -2.0440
    -2.0372  -2.0318  -2.0022  -1.9982  -1.9947  -1.9639  -1.9605  -1.9572
    -1.9559  -1.9518  -1.9479  -1.9452  -1.9392  -1.9387  -1.9368  -1.9307
    -1.9298  -1.9275  -1.9170  -1.9121  -1.9077  -1.9019  -1.8646  -1.8556
    -1.8549  -1.8385  -1.8309  -1.8272  -1.8231  -1.8169  -1.8160  -1.8135
    -1.8114  -1.8013  -1.8000  -1.7989  -1.7933  -1.7664  -1.7595  -1.7584
    -1.7574  -1.7482  -1.7431  -1.7424  -1.7365  -1.7364  -1.7265  -1.7238
    -1.7061  -1.7046  -1.6988  -1.6978  -1.6880  -1.6743  -1.6701  -1.6657
    -1.6634  -1.6586  -1.6507  -1.6287  -1.6129  -1.6037  -1.5993  -1.5974
    -1.5790  -1.5759  -1.5754  -1.5739  -1.5600  -1.5446  -1.5042  -1.4991
    -1.4925  -1.4879  -1.4799  -1.4790  -1.4705  -1.4672  -1.4597  -1.4580
    -1.4510  -1.4443  -1.4335  -1.4323  -1.4260  -1.4131  -1.4125  -1.4073
    -1.3996  -1.3816  -1.3716  -1.3684  -1.3628  -1.3579  -1.3453  -1.3395
    -1.3276  -1.3255  -1.3218  -1.3073  -1.3025  -1.2976  -1.2932  -1.2872
    -1.2871  -1.2777  -1.2764  -1.2670  -1.2645  -1.2553  -1.2535  -1.2496
    -1.2416  -1.2396  -1.2279  -1.2275  -1.2199  -1.2192  -1.2191  -1.2188
    -1.2153  -1.2087  -1.2058  -1.1779  -1.1766  -1.1706  -1.1565  -1.1553
    -1.1449  -1.1401  -1.1378  -1.1334  -1.1299  -1.1249  -1.1244  -1.1216
    -1.1188  -1.1075  -1.1058  -1.0984  -1.0873  -1.0828  -1.0799  -1.0779
    -1.0771  -1.0756  -1.0724  -1.0628  -1.0579  -1.0549  -1.0536  -1.0508
    -1.0501  -1.0441  -1.0044  -0.9810  -0.9697  -0.9648  -0.9522  -0.9371
    -0.9358  -0.9292  -0.9245  -0.9207  -0.9160  -0.9077  -0.9002  -0.8819
    -0.8780  -0.8613  -0.8299  -0.8280  -0.8259  -0.7658  -0.6680  -0.6316
    -0.6015  -0.5945  -0.5466  -0.4527  -0.3796  -0.1935  -0.1601  -0.1188
    -0.0035   0.0222   0.0573   0.1553   0.1621   0.1920   0.2707   0.2883
     0.3156   0.3347   0.5888   0.5922   0.6431   0.6719   0.7320   0.7784
     0.8028   0.8036   0.9241   0.9707   0.9832   1.1554   1.1640   1.1985
     1.3018   1.3263   1.3633   1.3876   1.4796   1.5214   1.5258   1.7955
     1.8682   1.8791   1.8973   1.9000   1.9101   1.9752   1.9822   2.0316
     2.0617   2.0734   2.1944   2.4011   2.4064   2.4084   2.4469   2.4515
     2.6432   2.6541   2.6776   2.7099   2.7217   2.7962   2.8417   3.1811
     3.2036   3.2180   3.2817   3.3296   3.3642   3.3779   3.5444   3.5476
     3.5700   3.6170   3.6260   3.7993   3.8065   3.8939   3.9031   4.0005
     4.0227   4.1243   4.1804   4.2440   4.2475   4.2705   4.3019   4.3974
     4.4721   4.4974   4.5211   4.5650   4.6631   4.8053   4.8116   4.8411
     4.8499   4.8524   4.8940   4.9671   4.9891   5.0742   5.0908   5.1946
     5.2016   5.2119   5.2381   5.2619   5.3017   5.4405   5.5256   5.5327
     5.5332   5.5445   5.6499   5.7198   5.7319   5.8369   5.8524   5.8738
     5.8958   5.9063   5.9913   6.0158   6.0165   6.0264   6.0423   6.1380
     6.1472   6.1656   6.2221   6.3062   6.4006   6.4470   6.5137   6.5228
     6.5868   6.6309   6.6529   6.6891   6.7311   6.7447   6.9679   7.0249
     7.0594   7.1194   7.1845   7.1954   7.1977   7.2751   7.3474   7.3572
     7.3961   7.4112   7.5060   7.5551   7.5575   7.5974   7.6626   7.6880
     7.7111   7.7342   7.8584   7.8605   7.9883   8.0097   8.0877   8.1091
     8.1416   8.1931   8.2172   8.2665   8.3093   8.3436   8.3959   8.4525
     8.5057   8.5429   8.5511   8.5605   8.5809   8.5857   8.6103   8.6619
     8.6704   8.6870   8.6970   8.7639   9.1938   9.2339   9.2487   9.2769
     9.2903   9.3778   9.4139   9.4302   9.4401   9.4487   9.5260   9.5322
     9.5827   9.6712   9.7595   9.8677   9.9494  10.3712  10.4132  10.7282

          k =-0.2500 0.5057 0.0000 ( 95386 PWs)   bands (ev):

    -8.0048  -7.7854  -7.3694  -7.1564  -6.9588  -6.8864  -6.8074  -6.6746
    -6.6108  -6.2900  -6.2193  -6.1890  -6.1050  -6.0373  -5.9302  -5.9279
    -5.8887  -5.8391  -5.8309  -5.8249  -5.7939  -5.7360  -5.7239  -5.6814
    -5.6674  -5.6495  -5.6453  -5.6401  -5.5498  -5.5384  -5.5309  -5.5226
    -5.5164  -5.5072  -5.4892  -5.4812  -5.4629  -5.4594  -5.4282  -5.3751
    -5.3690  -5.3537  -5.3515  -5.3170  -5.3099  -5.2938  -5.2912  -5.2336
    -5.2326  -5.2326  -5.2282  -5.2183  -5.1997  -5.1786  -5.1554  -5.1446
    -5.1298  -5.1244  -5.1156  -5.1141  -5.1105  -5.1091  -5.0880  -5.0675
    -5.0647  -5.0570  -5.0559  -5.0488  -5.0407  -5.0376  -5.0304  -4.9877
    -4.9820  -4.9669  -4.9637  -4.9480  -4.9342  -4.9323  -4.9288  -4.9268
    -4.9176  -4.9159  -4.9068  -4.9039  -4.8858  -4.8853  -4.8817  -4.8718
    -4.8718  -4.8620  -4.8595  -4.8487  -4.8279  -4.8269  -4.8247  -4.8220
    -4.7418  -4.7392  -4.7376  -4.7367  -4.7328  -4.7254  -4.7211  -4.7207
    -4.7201  -4.7119  -4.6994  -4.6847  -4.6741  -4.6165  -4.6000  -4.5970
    -4.5933  -4.5849  -4.5624  -4.5610  -4.5573  -4.5267  -4.4705  -4.4694
    -4.4508  -4.4137  -4.3979  -4.3951  -4.3934  -4.3931  -4.3916  -4.3853
    -4.3552  -4.3456  -4.3450  -4.3370  -4.3255  -4.3229  -4.3201  -4.3035
    -4.3020  -4.2738  -4.2644  -4.2573  -4.2476  -4.2451  -4.2293  -4.2105
    -4.1937  -4.1678  -4.1561  -4.1549  -4.1545  -4.1530  -4.1482  -4.1394
    -4.1372  -4.1044  -4.0971  -4.0833  -4.0773  -4.0761  -4.0698  -4.0543
    -4.0505  -4.0352  -4.0306  -4.0239  -4.0213  -4.0171  -4.0083  -3.9938
    -3.9867  -3.9706  -3.9585  -3.9274  -3.9139  -3.8985  -3.8930  -3.8895
    -3.8709  -3.8706  -3.8610  -3.8373  -3.8365  -3.8328  -3.8164  -3.8083
    -3.7859  -3.7800  -3.7391  -3.7357  -3.7264  -3.7240  -3.7148  -3.7101
    -3.7008  -3.6851  -3.6806  -3.6711  -3.6588  -3.6404  -3.6191  -3.6191
    -3.6172  -3.6161  -3.6054  -3.6017  -3.5990  -3.5951  -3.5916  -3.5796
    -3.5697  -3.5669  -3.5644  -3.5594  -3.5574  -3.5508  -3.5457  -3.5447
    -3.5434  -3.5341  -3.5235  -3.4922  -3.4821  -3.4562  -3.4539  -3.4428
    -3.4424  -3.4404  -3.4391  -3.4259  -3.4212  -3.4126  -3.4050  -3.3969
    -3.3878  -3.3796  -3.3739  -3.3719  -3.3702  -3.3694  -3.3642  -3.3562
    -3.3524  -3.3373  -3.3355  -3.3268  -3.3260  -3.3243  -3.3198  -3.3170
    -3.3133  -3.3129  -3.3090  -3.3085  -3.2996  -3.2968  -3.2918  -3.2859
    -3.2813  -3.2793  -3.2590  -3.2496  -3.2467  -3.2437  -3.2380  -3.2287
    -3.2195  -3.2188  -3.2141  -3.2101  -3.2021  -3.1996  -3.1888  -3.1804
    -3.1789  -3.1731  -3.1720  -3.1683  -3.1668  -3.1591  -3.1580  -3.1457
    -3.1456  -3.1215  -3.1211  -3.1105  -3.0981  -3.0905  -3.0843  -3.0578
    -3.0412  -3.0398  -3.0344  -3.0332  -3.0261  -3.0238  -3.0230  -3.0180
    -3.0172  -3.0162  -3.0154  -3.0090  -3.0023  -3.0014  -2.9892  -2.9848
    -2.9817  -2.9806  -2.9799  -2.9749  -2.9748  -2.9709  -2.9685  -2.9507
    -2.9150  -2.9129  -2.8900  -2.8757  -2.8741  -2.8622  -2.8596  -2.8492
    -2.8474  -2.8279  -2.8219  -2.8204  -2.7996  -2.7961  -2.7954  -2.7829
    -2.7796  -2.7752  -2.7673  -2.7640  -2.7501  -2.7490  -2.7467  -2.7420
    -2.7231  -2.7223  -2.7205  -2.7179  -2.6627  -2.6542  -2.6461  -2.6365
    -2.6294  -2.6260  -2.6214  -2.5954  -2.5800  -2.5697  -2.5673  -2.5668
    -2.5634  -2.5589  -2.5530  -2.5407  -2.5280  -2.5251  -2.5193  -2.5160
    -2.5089  -2.5071  -2.5010  -2.4928  -2.4898  -2.4862  -2.4803  -2.4791
    -2.4731  -2.4722  -2.4664  -2.4656  -2.4597  -2.4490  -2.4352  -2.4346
    -2.4063  -2.4000  -2.3982  -2.3742  -2.3702  -2.3631  -2.3558  -2.3557
    -2.3486  -2.3451  -2.3355  -2.3323  -2.3152  -2.3002  -2.2927  -2.2718
    -2.2684  -2.2666  -2.2636  -2.2487  -2.2432  -2.2335  -2.2315  -2.2149
    -2.2125  -2.2054  -2.2051  -2.1977  -2.1969  -2.1781  -2.1448  -2.1360
    -2.1303  -2.1057  -2.1022  -2.0847  -2.0674  -2.0483  -2.0474  -2.0440
    -2.0372  -2.0318  -2.0022  -1.9982  -1.9947  -1.9639  -1.9605  -1.9572
    -1.9560  -1.9518  -1.9479  -1.9452  -1.9392  -1.9387  -1.9368  -1.9308
    -1.9298  -1.9274  -1.9170  -1.9121  -1.9077  -1.9019  -1.8646  -1.8556
    -1.8549  -1.8385  -1.8309  -1.8272  -1.8231  -1.8169  -1.8160  -1.8135
    -1.8114  -1.8013  -1.8000  -1.7989  -1.7933  -1.7664  -1.7595  -1.7584
    -1.7574  -1.7482  -1.7431  -1.7424  -1.7365  -1.7364  -1.7265  -1.7238
    -1.7061  -1.7046  -1.6988  -1.6978  -1.6880  -1.6743  -1.6701  -1.6657
    -1.6634  -1.6586  -1.6507  -1.6287  -1.6129  -1.6037  -1.5993  -1.5974
    -1.5790  -1.5759  -1.5754  -1.5739  -1.5600  -1.5446  -1.5042  -1.4991
    -1.4925  -1.4879  -1.4799  -1.4790  -1.4705  -1.4672  -1.4597  -1.4580
    -1.4510  -1.4443  -1.4335  -1.4323  -1.4260  -1.4131  -1.4125  -1.4073
    -1.3996  -1.3816  -1.3716  -1.3684  -1.3628  -1.3579  -1.3453  -1.3395
    -1.3276  -1.3255  -1.3218  -1.3073  -1.3025  -1.2976  -1.2932  -1.2872
    -1.2871  -1.2777  -1.2764  -1.2669  -1.2645  -1.2553  -1.2535  -1.2496
    -1.2416  -1.2396  -1.2279  -1.2275  -1.2199  -1.2192  -1.2191  -1.2188
    -1.2153  -1.2087  -1.2058  -1.1779  -1.1766  -1.1706  -1.1565  -1.1553
    -1.1449  -1.1401  -1.1378  -1.1334  -1.1299  -1.1249  -1.1244  -1.1216
    -1.1188  -1.1075  -1.1058  -1.0984  -1.0873  -1.0828  -1.0799  -1.0779
    -1.0771  -1.0756  -1.0724  -1.0628  -1.0579  -1.0549  -1.0536  -1.0508
    -1.0501  -1.0441  -1.0044  -0.9810  -0.9697  -0.9648  -0.9521  -0.9373
    -0.9357  -0.9292  -0.9245  -0.9207  -0.9160  -0.9077  -0.9002  -0.8819
    -0.8780  -0.8613  -0.8299  -0.8280  -0.8259  -0.7658  -0.6680  -0.6316
    -0.6015  -0.5945  -0.5466  -0.4527  -0.3796  -0.1935  -0.1601  -0.1188
    -0.0035   0.0222   0.0573   0.1553   0.1621   0.1920   0.2707   0.2883
     0.3156   0.3347   0.5888   0.5922   0.6431   0.6719   0.7320   0.7784
     0.8027   0.8036   0.9241   0.9707   0.9832   1.1554   1.1640   1.1985
     1.3018   1.3263   1.3633   1.3876   1.4796   1.5214   1.5258   1.7955
     1.8682   1.8791   1.8973   1.9000   1.9101   1.9753   1.9821   2.0316
     2.0617   2.0734   2.1944   2.4011   2.4064   2.4084   2.4469   2.4515
     2.6432   2.6541   2.6776   2.7099   2.7217   2.7962   2.8417   3.1811
     3.2036   3.2180   3.2817   3.3296   3.3642   3.3779   3.5444   3.5476
     3.5700   3.6170   3.6260   3.7993   3.8065   3.8939   3.9031   4.0005
     4.0227   4.1243   4.1804   4.2440   4.2475   4.2705   4.3019   4.3974
     4.4721   4.4975   4.5211   4.5650   4.6631   4.8053   4.8116   4.8411
     4.8499   4.8524   4.8940   4.9671   4.9891   5.0742   5.0908   5.1946
     5.2016   5.2120   5.2381   5.2619   5.3016   5.4405   5.5256   5.5327
     5.5332   5.5445   5.6499   5.7197   5.7319   5.8368   5.8523   5.8732
     5.8958   5.9064   5.9913   6.0156   6.0172   6.0265   6.0423   6.1380
     6.1474   6.1656   6.2221   6.3065   6.4012   6.4460   6.5138   6.5226
     6.5875   6.6311   6.6520   6.6891   6.7302   6.7458   6.9680   7.0262
     7.0601   7.1210   7.1812   7.1919   7.1958   7.2780   7.3456   7.3524
     7.3945   7.4114   7.5082   7.5553   7.5576   7.5986   7.6615   7.6857
     7.7110   7.7347   7.8604   7.8656   7.9894   8.0098   8.0849   8.1072
     8.1628   8.1816   8.2040   8.2649   8.3089   8.3435   8.3965   8.4524
     8.5081   8.5413   8.5617   8.5825   8.6065   8.6075   8.6220   8.6656
     8.6730   8.6786   8.6946   8.7653   9.2067   9.2353   9.2359   9.2417
     9.2729   9.3727   9.4158   9.4175   9.4359   9.4426   9.5311   9.5399
     9.5735   9.6382   9.7362   9.8644   9.9492  10.3676  10.4810  10.7291

     the Fermi energy is     0.7845 ev

!    total energy              =  -11427.09402120 Ry
     Harris-Foulkes estimate   =  -11427.09402170 Ry
     estimated scf accuracy    <       0.00000051 Ry

     The total energy is the sum of the following terms:

     one-electron contribution = -129707.73570613 Ry
     hartree contribution      =   65677.92046180 Ry
     xc contribution           =   -5523.82417855 Ry
     ewald contribution        =   58126.48229572 Ry
     smearing contrib. (-TS)   =       0.06310597 Ry

     convergence has been achieved in  23 iterations

     negative rho (up, down):  3.085E+00 0.000E+00

     Forces acting on atoms (cartesian axes, Ry/au):

     atom    1 type  1   force =    -0.00088380    0.00016498    0.00838681
     atom    2 type  1   force =    -0.00087953   -0.00022105    0.00814077
     atom    3 type  1   force =    -0.00010864    0.00022853    0.00898541
     atom    4 type  1   force =    -0.00010816   -0.00016807    0.00873600
     atom    5 type  1   force =     0.00000549    0.00025892    0.00900565
     atom    6 type  1   force =     0.00000656   -0.00013828    0.00875575
     atom    7 type  1   force =    -0.00020785    0.00023879    0.00893331
     atom    8 type  1   force =    -0.00020571   -0.00015419    0.00868287
     atom    9 type  1   force =     0.00000682    0.00023576    0.00896113
     atom   10 type  1   force =     0.00000680   -0.00015251    0.00870935
     atom   11 type  1   force =    -0.00007787    0.00024744    0.00906526
     atom   12 type  1   force =    -0.00007852   -0.00014005    0.00881322
     atom   13 type  1   force =     0.00089397    0.00027098    0.00887292
     atom   14 type  1   force =     0.00089112   -0.00011736    0.00862336
     atom   15 type  1   force =    -0.00118663    0.00036162   -0.00528364
     atom   16 type  1   force =    -0.00118416   -0.00001772   -0.00539251
     atom   17 type  1   force =    -0.00011314    0.00033394   -0.00529178
     atom   18 type  1   force =    -0.00011351   -0.00005313   -0.00540315
     atom   19 type  1   force =     0.00005929    0.00033982   -0.00531234
     atom   20 type  1   force =     0.00006005   -0.00004991   -0.00542314
     atom   21 type  1   force =    -0.00021248    0.00034419   -0.00537166
     atom   22 type  1   force =    -0.00020967   -0.00004574   -0.00547934
     atom   23 type  1   force =     0.00001911    0.00034391   -0.00541055
     atom   24 type  1   force =     0.00002006   -0.00004497   -0.00551495
     atom   25 type  1   force =    -0.00014743    0.00033669   -0.00541265
     atom   26 type  1   force =    -0.00014728   -0.00005155   -0.00551712
     atom   27 type  1   force =     0.00108434    0.00033747   -0.00533665
     atom   28 type  1   force =     0.00108121   -0.00004876   -0.00544306
     atom   29 type  1   force =    -0.00050558   -0.00015139    0.00860072
     atom   30 type  1   force =    -0.00050872   -0.00045511    0.00865319
     atom   31 type  1   force =    -0.00006071   -0.00017144    0.00877960
     atom   32 type  1   force =    -0.00006070   -0.00047631    0.00883219
     atom   33 type  1   force =     0.00000807   -0.00018197    0.00869415
     atom   34 type  1   force =     0.00001115   -0.00048926    0.00874589
     atom   35 type  1   force =    -0.00012234   -0.00016736    0.00873114
     atom   36 type  1   force =    -0.00012015   -0.00047765    0.00878258
     atom   37 type  1   force =    -0.00015230   -0.00017445    0.00874222
     atom   38 type  1   force =    -0.00015214   -0.00048441    0.00879103
     atom   39 type  1   force =     0.00017368   -0.00018157    0.00882431
     atom   40 type  1   force =     0.00017310   -0.00049064    0.00887421
     atom   41 type  1   force =     0.00102594   -0.00026706    0.00811936
     atom   42 type  1   force =     0.00102743   -0.00056611    0.00817016
     atom   43 type  1   force =    -0.00065936   -0.00014375   -0.00529956
     atom   44 type  1   force =    -0.00066050   -0.00058739   -0.00528018
     atom   45 type  1   force =    -0.00003441   -0.00014633   -0.00533462
     atom   46 type  1   force =    -0.00003525   -0.00058965   -0.00531481
     atom   47 type  1   force =     0.00007985   -0.00013730   -0.00537560
     atom   48 type  1   force =     0.00008021   -0.00058157   -0.00535629
     atom   49 type  1   force =    -0.00011811   -0.00013803   -0.00542488
     atom   50 type  1   force =    -0.00011746   -0.00058671   -0.00540631
     atom   51 type  1   force =    -0.00020180   -0.00013611   -0.00544568
     atom   52 type  1   force =    -0.00020170   -0.00058550   -0.00542591
     atom   53 type  1   force =     0.00015555   -0.00014783   -0.00542511
     atom   54 type  1   force =     0.00015571   -0.00059789   -0.00540584
     atom   55 type  1   force =     0.00127046   -0.00010780   -0.00534635
     atom   56 type  1   force =     0.00127543   -0.00054685   -0.00532481
     atom   57 type  1   force =    -0.00097819    0.00068887   -0.00842424
     atom   58 type  1   force =    -0.00097256    0.00023660   -0.00812872
     atom   59 type  1   force =    -0.00014167    0.00064060   -0.00901317
     atom   60 type  1   force =    -0.00014081    0.00018379   -0.00871740
     atom   61 type  1   force =     0.00005907    0.00061139   -0.00902991
     atom   62 type  1   force =     0.00005815    0.00015235   -0.00873449
     atom   63 type  1   force =    -0.00010900    0.00063001   -0.00896659
     atom   64 type  1   force =    -0.00010988    0.00016766   -0.00866966
     atom   65 type  1   force =     0.00007597    0.00063207   -0.00900503
     atom   66 type  1   force =     0.00007475    0.00016684   -0.00870867
     atom   67 type  1   force =    -0.00008715    0.00062037   -0.00911480
     atom   68 type  1   force =    -0.00008675    0.00015477   -0.00881906
     atom   69 type  1   force =     0.00081147    0.00059474   -0.00892077
     atom   70 type  1   force =     0.00081112    0.00013282   -0.00862557
     atom   71 type  1   force =    -0.00069458    0.00072923    0.00522826
     atom   72 type  1   force =    -0.00069304    0.00025654    0.00538174
     atom   73 type  1   force =    -0.00002885    0.00073254    0.00529816
     atom   74 type  1   force =    -0.00002876    0.00025807    0.00545113
     atom   75 type  1   force =     0.00012185    0.00072350    0.00528116
     atom   76 type  1   force =     0.00012022    0.00024839    0.00543634
     atom   77 type  1   force =    -0.00007337    0.00072855    0.00522851
     atom   78 type  1   force =    -0.00007436    0.00025246    0.00538589
     atom   79 type  1   force =    -0.00018719    0.00072601    0.00517753
     atom   80 type  1   force =    -0.00018679    0.00025053    0.00533652
     atom   81 type  1   force =     0.00013186    0.00073782    0.00516818
     atom   82 type  1   force =     0.00013230    0.00026284    0.00532705
     atom   83 type  1   force =     0.00122701    0.00068551    0.00517510
     atom   84 type  1   force =     0.00122236    0.00021978    0.00533037
     atom   85 type  1   force =    -0.00122877   -0.00000103    0.00535474
     atom   86 type  1   force =    -0.00123289   -0.00069534    0.00553264
     atom   87 type  1   force =    -0.00012893    0.00003540    0.00543899
     atom   88 type  1   force =    -0.00012938   -0.00067093    0.00561601
     atom   89 type  1   force =     0.00008595    0.00003014    0.00544509
     atom   90 type  1   force =     0.00008508   -0.00067679    0.00562171
     atom   91 type  1   force =    -0.00016383    0.00002361    0.00541588
     atom   92 type  1   force =    -0.00016450   -0.00068062    0.00559325
     atom   93 type  1   force =     0.00005142    0.00002331    0.00535749
     atom   94 type  1   force =     0.00005219   -0.00067940    0.00553681
     atom   95 type  1   force =    -0.00015169    0.00003200    0.00532351
     atom   96 type  1   force =    -0.00015095   -0.00067135    0.00550378
     atom   97 type  1   force =     0.00104334    0.00002961    0.00530294
     atom   98 type  1   force =     0.00104476   -0.00067286    0.00548217
     atom   99 type  1   force =    -0.00057707    0.00007081   -0.00857336
     atom  100 type  1   force =    -0.00057630   -0.00024696   -0.00863406
     atom  101 type  1   force =    -0.00004853    0.00009455   -0.00874824
     atom  102 type  1   force =    -0.00004926   -0.00022428   -0.00880901
     atom  103 type  1   force =     0.00009209    0.00010373   -0.00866280
     atom  104 type  1   force =     0.00009032   -0.00021321   -0.00872411
     atom  105 type  1   force =    -0.00002875    0.00008703   -0.00870747
     atom  106 type  1   force =    -0.00003081   -0.00022768   -0.00876896
     atom  107 type  1   force =    -0.00011546    0.00009566   -0.00873092
     atom  108 type  1   force =    -0.00011611   -0.00021695   -0.00879265
     atom  109 type  1   force =     0.00012129    0.00010233   -0.00881581
     atom  110 type  1   force =     0.00012274   -0.00021182   -0.00887753
     atom  111 type  1   force =     0.00092490    0.00018612   -0.00810062
     atom  112 type  1   force =     0.00093020   -0.00012210   -0.00816137

     Total force =     0.076988     Total SCF correction =     0.004151

     Writing output data file ./ausurf.save/
 
     init_run     :      5.72s CPU      6.01s WALL (       1 calls)
     electrons    :    222.05s CPU    228.27s WALL (       1 calls)
     forces       :      2.26s CPU      2.37s WALL (       1 calls)

     Called by init_run:
     wfcinit      :      4.26s CPU      4.42s WALL (       1 calls)
     potinit      :      0.10s CPU      0.13s WALL (       1 calls)
     hinit0       :      0.28s CPU      0.31s WALL (       1 calls)

     Called by electrons:
     c_bands      :    190.17s CPU    195.05s WALL (      24 calls)
     sum_band     :     29.77s CPU     30.62s WALL (      24 calls)
     v_of_rho     :      0.81s CPU      0.87s WALL (      24 calls)
     newd         :      0.95s CPU      1.25s WALL (      24 calls)
     mix_rho      :      0.20s CPU      0.21s WALL (      24 calls)

     Called by c_bands:
     init_us_2    :      0.60s CPU      0.60s WALL (     100 calls)
     crmmdiagg    :     92.48s CPU     95.07s WALL (      48 calls)
     wfcrot       :     81.17s CPU     83.21s WALL (      46 calls)
     gsorth       :     19.74s CPU     19.92s WALL (      48 calls)

     Called by sum_band:
     sum_band:bec :      0.62s CPU      0.63s WALL (      48 calls)
     addusdens    :      0.79s CPU      1.01s WALL (      24 calls)

     Called by *rmmdiagg:
     h_psi        :    128.10s CPU    131.10s WALL (     242 calls)
     s_psi        :     13.60s CPU     14.15s WALL (     242 calls)
     cdiaghg      :      7.50s CPU      7.73s WALL (      46 calls)

     Called by h_psi:
     h_psi:calbec :     21.47s CPU     21.97s WALL (     242 calls)
     vloc_psi     :     92.50s CPU     94.34s WALL (     242 calls)
     add_vuspsi   :     13.70s CPU     14.35s WALL (     242 calls)

     General routines
     calbec       :     31.34s CPU     32.08s WALL (     298 calls)
     fft          :      1.10s CPU      1.12s WALL (     322 calls)
     ffts         :      0.14s CPU      0.14s WALL (      48 calls)
     fftw         :    108.46s CPU    110.64s WALL (  227472 calls)
     interpolate  :      0.14s CPU      0.14s WALL (      24 calls)
 
     Parallel routines
     fft_scatt_xy :      3.68s CPU      3.76s WALL (  227842 calls)
     fft_scatt_yz :     92.61s CPU     94.51s WALL (  227842 calls)
 
     PWSCF        :   4m 0.61s CPU   4m51.56s WALL

 
   This run was terminated on:  14:16:27  16Jul2020            

=------------------------------------------------------------------------------=
   JOB DONE.
=------------------------------------------------------------------------------=
