
     Program PWSCF v.6.5 starts on 16Jul2020 at 13:18:30 

     This program is part of the open-source Quantum ESPRESSO suite
     for quantum simulation of materials; please cite
         "P. Giannozzi et al., J. Phys.:Condens. Matter 21 395502 (2009);
         "P. Giannozzi et al., J. Phys.:Condens. Matter 29 465901 (2017);
          URL http://www.quantum-espresso.org", 
     in publications or presentations arising from this work. More details at
     http://www.quantum-espresso.org/quote

     Parallel version (MPI & OpenMP), running on      36 processor cores
     Number of MPI processes:                36
     Threads/MPI process:                     1

     MPI processes distributed on     1 nodes
     R & G space division:  proc/nbgrp/npool/nimage =      36
     Reading input from ausurf_rmm.in

     Current dimensions of program PWSCF are:
     Max number of different atomic species (ntypx) = 10
     Max number of k-points (npk) =  40000
     Max angular momentum in pseudopotentials (lmaxx) =  3

     Subspace diagonalization in iterative solution of the eigenvalue problem:
     one sub-group per band group will be used
     scalapack distributed-memory algorithm (size of sub-group:  6*  6 procs)

 
     Parallelization info
     --------------------
     sticks:   dense  smooth     PW     G-vecs:    dense   smooth      PW
     Min         328     164     42                59950    21202    2796
     Max         329     165     43                59957    21207    2805
     Sum       11837    5915   1537              2158381   763307  100747
 

     Title: 
      DEISA pw benchmark                                                        


     bravais-lattice index     =            8
     lattice parameter (alat)  =      38.7583  a.u.
     unit-cell volume          =   45191.4962 (a.u.)^3
     number of atoms/cell      =          112
     number of atomic types    =            1
     number of electrons       =      1232.00
     number of Kohn-Sham states=          800
     kinetic-energy cutoff     =      25.0000  Ry
     charge density cutoff     =     200.0000  Ry
     convergence threshold     =      1.0E-06
     mixing beta               =       0.7000
     number of iterations used =            8  plain     mixing
     Exchange-correlation=  SLA  PW   PBE  PBE
                           (   1   4   3   4   0   0   0)

     celldm(1)=  38.758300  celldm(2)=   0.494393  celldm(3)=   1.569966
     celldm(4)=   0.000000  celldm(5)=   0.000000  celldm(6)=   0.000000

     crystal axes: (cart. coord. in units of alat)
               a(1) = (   1.000000   0.000000   0.000000 )  
               a(2) = (   0.000000   0.494393   0.000000 )  
               a(3) = (   0.000000   0.000000   1.569966 )  

     reciprocal axes: (cart. coord. in units 2 pi/alat)
               b(1) = (  1.000000  0.000000  0.000000 )  
               b(2) = (  0.000000  2.022682  0.000000 )  
               b(3) = (  0.000000  0.000000  0.636956 )  


     PseudoPot. # 1 for Au read from file:
     ./Au.pbe-nd-van.UPF
     MD5 check sum: deb5c07af10777505a79e28f5b4b4115
     Pseudo is Ultrasoft + core correction, Zval = 11.0
     Generated by new atomic code, or converted to UPF format
     Using radial grid of  985 points,  3 beta functions with: 
                l(1) =   1
                l(2) =   2
                l(3) =   2
     Q(r) pseudized with  8 coefficients,  rinner =    1.100   1.100   1.100
                                                       1.100   1.100

     atomic species   valence    mass     pseudopotential
        AU            11.00   196.96000     Au( 1.00)

     No symmetry found



   Cartesian axes

     site n.     atom                  positions (alat units)
         1           AU  tau(   1) = (   1.4278395   1.9784974   0.3497317  )
         2           AU  tau(   2) = (   1.4278395   1.7313987   0.3497317  )
         3           AU  tau(   3) = (   1.5706478   1.9784974   0.3497317  )
         4           AU  tau(   4) = (   1.5706478   1.7313987   0.3497317  )
         5           AU  tau(   5) = (   1.7134072   1.9784974   0.3497317  )
         6           AU  tau(   6) = (   1.7134072   1.7313987   0.3497317  )
         7           AU  tau(   7) = (   1.8562156   1.9784974   0.3497317  )
         8           AU  tau(   8) = (   1.8562156   1.7313987   0.3497317  )
         9           AU  tau(   9) = (   1.9989753   1.9784974   0.3497317  )
        10           AU  tau(  10) = (   1.9989753   1.7313987   0.3497317  )
        11           AU  tau(  11) = (   2.1417836   1.9784974   0.3497317  )
        12           AU  tau(  12) = (   2.1417836   1.7313987   0.3497317  )
        13           AU  tau(  13) = (   2.2845431   1.9784974   0.3497317  )
        14           AU  tau(  14) = (   2.2845431   1.7313987   0.3497317  )
        15           AU  tau(  15) = (   1.4278395   2.0609450   0.2331545  )
        16           AU  tau(  16) = (   1.4278395   1.8138461   0.2331545  )
        17           AU  tau(  17) = (   1.5706478   2.0609450   0.2331545  )
        18           AU  tau(  18) = (   1.5706478   1.8138461   0.2331545  )
        19           AU  tau(  19) = (   1.7134072   2.0609450   0.2331545  )
        20           AU  tau(  20) = (   1.7134072   1.8138461   0.2331545  )
        21           AU  tau(  21) = (   1.8562156   2.0609450   0.2331545  )
        22           AU  tau(  22) = (   1.8562156   1.8138461   0.2331545  )
        23           AU  tau(  23) = (   1.9989753   2.0609450   0.2331545  )
        24           AU  tau(  24) = (   1.9989753   1.8138461   0.2331545  )
        25           AU  tau(  25) = (   2.1417836   2.0609450   0.2331545  )
        26           AU  tau(  26) = (   2.1417836   1.8138461   0.2331545  )
        27           AU  tau(  27) = (   2.2845431   2.0609450   0.2331545  )
        28           AU  tau(  28) = (   2.2845431   1.8138461   0.2331545  )
        29           AU  tau(  29) = (   1.4992193   2.1021445   0.3497317  )
        30           AU  tau(  30) = (   1.4992193   1.8550456   0.3497317  )
        31           AU  tau(  31) = (   1.6420276   2.1021445   0.3497317  )
        32           AU  tau(  32) = (   1.6420276   1.8550456   0.3497317  )
        33           AU  tau(  33) = (   1.7847871   2.1021445   0.3497317  )
        34           AU  tau(  34) = (   1.7847871   1.8550456   0.3497317  )
        35           AU  tau(  35) = (   1.9275954   2.1021445   0.3497317  )
        36           AU  tau(  36) = (   1.9275954   1.8550456   0.3497317  )
        37           AU  tau(  37) = (   2.0704038   2.1021445   0.3497317  )
        38           AU  tau(  38) = (   2.0704038   1.8550456   0.3497317  )
        39           AU  tau(  39) = (   2.2131632   2.1021445   0.3497317  )
        40           AU  tau(  40) = (   2.2131632   1.8550456   0.3497317  )
        41           AU  tau(  41) = (   2.3559716   2.1021445   0.3497317  )
        42           AU  tau(  42) = (   2.3559716   1.8550456   0.3497317  )
        43           AU  tau(  43) = (   1.4992193   1.6901992   0.2331545  )
        44           AU  tau(  44) = (   1.4992193   1.9374930   0.2331545  )
        45           AU  tau(  45) = (   1.6420276   1.6901992   0.2331545  )
        46           AU  tau(  46) = (   1.6420276   1.9374930   0.2331545  )
        47           AU  tau(  47) = (   1.7847871   1.6901992   0.2331545  )
        48           AU  tau(  48) = (   1.7847871   1.9374930   0.2331545  )
        49           AU  tau(  49) = (   1.9275954   1.6901992   0.2331545  )
        50           AU  tau(  50) = (   1.9275954   1.9374930   0.2331545  )
        51           AU  tau(  51) = (   2.0704038   1.6901992   0.2331545  )
        52           AU  tau(  52) = (   2.0704038   1.9374930   0.2331545  )
        53           AU  tau(  53) = (   2.2131632   1.6901992   0.2331545  )
        54           AU  tau(  54) = (   2.2131632   1.9374930   0.2331545  )
        55           AU  tau(  55) = (   2.3559716   1.6901992   0.2331545  )
        56           AU  tau(  56) = (   2.3559716   1.9374930   0.2331545  )
        57           AU  tau(  57) = (   1.4278395   1.9784974   0.0000000  )
        58           AU  tau(  58) = (   1.4278395   1.7313987   0.0000000  )
        59           AU  tau(  59) = (   1.5706478   1.9784974   0.0000000  )
        60           AU  tau(  60) = (   1.5706478   1.7313987   0.0000000  )
        61           AU  tau(  61) = (   1.7134072   1.9784974   0.0000000  )
        62           AU  tau(  62) = (   1.7134072   1.7313987   0.0000000  )
        63           AU  tau(  63) = (   1.8562156   1.9784974   0.0000000  )
        64           AU  tau(  64) = (   1.8562156   1.7313987   0.0000000  )
        65           AU  tau(  65) = (   1.9989753   1.9784974   0.0000000  )
        66           AU  tau(  66) = (   1.9989753   1.7313987   0.0000000  )
        67           AU  tau(  67) = (   2.1417836   1.9784974   0.0000000  )
        68           AU  tau(  68) = (   2.1417836   1.7313987   0.0000000  )
        69           AU  tau(  69) = (   2.2845431   1.9784974   0.0000000  )
        70           AU  tau(  70) = (   2.2845431   1.7313987   0.0000000  )
        71           AU  tau(  71) = (   1.4992193   2.0196968   0.1165772  )
        72           AU  tau(  72) = (   1.4992193   1.7725979   0.1165772  )
        73           AU  tau(  73) = (   1.6420276   2.0196968   0.1165772  )
        74           AU  tau(  74) = (   1.6420276   1.7725979   0.1165772  )
        75           AU  tau(  75) = (   1.7847871   2.0196968   0.1165772  )
        76           AU  tau(  76) = (   1.7847871   1.7725979   0.1165772  )
        77           AU  tau(  77) = (   1.9275954   2.0196968   0.1165772  )
        78           AU  tau(  78) = (   1.9275954   1.7725979   0.1165772  )
        79           AU  tau(  79) = (   2.0704038   2.0196968   0.1165772  )
        80           AU  tau(  80) = (   2.0704038   1.7725979   0.1165772  )
        81           AU  tau(  81) = (   2.2131632   2.0196968   0.1165772  )
        82           AU  tau(  82) = (   2.2131632   1.7725979   0.1165772  )
        83           AU  tau(  83) = (   2.3559716   2.0196968   0.1165772  )
        84           AU  tau(  84) = (   2.3559716   1.7725979   0.1165772  )
        85           AU  tau(  85) = (   1.4278395   2.1433437   0.1165772  )
        86           AU  tau(  86) = (   1.4278395   1.8962938   0.1165772  )
        87           AU  tau(  87) = (   1.5706478   2.1433437   0.1165772  )
        88           AU  tau(  88) = (   1.5706478   1.8962938   0.1165772  )
        89           AU  tau(  89) = (   1.7134072   2.1433437   0.1165772  )
        90           AU  tau(  90) = (   1.7134072   1.8962938   0.1165772  )
        91           AU  tau(  91) = (   1.8562156   2.1433437   0.1165772  )
        92           AU  tau(  92) = (   1.8562156   1.8962938   0.1165772  )
        93           AU  tau(  93) = (   1.9989753   2.1433437   0.1165772  )
        94           AU  tau(  94) = (   1.9989753   1.8962938   0.1165772  )
        95           AU  tau(  95) = (   2.1417836   2.1433437   0.1165772  )
        96           AU  tau(  96) = (   2.1417836   1.8962938   0.1165772  )
        97           AU  tau(  97) = (   2.2845431   2.1433437   0.1165772  )
        98           AU  tau(  98) = (   2.2845431   1.8962938   0.1165772  )
        99           AU  tau(  99) = (   1.4992193   2.1021445   0.0000000  )
       100           AU  tau( 100) = (   1.4992193   1.8550456   0.0000000  )
       101           AU  tau( 101) = (   1.6420276   2.1021445   0.0000000  )
       102           AU  tau( 102) = (   1.6420276   1.8550456   0.0000000  )
       103           AU  tau( 103) = (   1.7847871   2.1021445   0.0000000  )
       104           AU  tau( 104) = (   1.7847871   1.8550456   0.0000000  )
       105           AU  tau( 105) = (   1.9275954   2.1021445   0.0000000  )
       106           AU  tau( 106) = (   1.9275954   1.8550456   0.0000000  )
       107           AU  tau( 107) = (   2.0704038   2.1021445   0.0000000  )
       108           AU  tau( 108) = (   2.0704038   1.8550456   0.0000000  )
       109           AU  tau( 109) = (   2.2131632   2.1021445   0.0000000  )
       110           AU  tau( 110) = (   2.2131632   1.8550456   0.0000000  )
       111           AU  tau( 111) = (   2.3559716   2.1021445   0.0000000  )
       112           AU  tau( 112) = (   2.3559716   1.8550456   0.0000000  )

     number of k points=     2  Marzari-Vanderbilt smearing, width (Ry)=  0.0500
                       cart. coord. in units 2pi/alat
        k(    1) = (   0.2500000   0.5056706   0.0000000), wk =   1.0000000
        k(    2) = (  -0.2500000   0.5056706   0.0000000), wk =   1.0000000

     Dense  grid:  2158381 G-vectors     FFT dimensions: ( 180,  90, 288)

     Smooth grid:   763307 G-vectors     FFT dimensions: ( 125,  64, 200)

     Estimated max dynamical RAM per process >     759.69 MB

     Estimated total dynamical RAM >      26.71 GB

     Initial potential from superposition of free atoms

     starting charge 1230.69946, renormalised to 1232.00000

     negative rho (up, down):  3.043E+00 0.000E+00
     Starting wfcs are 1008 randomized atomic wfcs

     total cpu time spent up to now is       16.5 secs

     Self-consistent Calculation

     iteration #  1     ecut=    25.00 Ry     beta= 0.70
     RMM-DIIS diagonalization
     ethr =  1.00E-02,  avg # of iterations =  1.9

     Threshold (ethr) on eigenvalues was too large:
     Diagonalizing with lowered threshold

     RMM-DIIS diagonalization
     ethr =  3.13E-04,  avg # of iterations =  2.8

     negative rho (up, down):  2.995E+00 0.000E+00

     total cpu time spent up to now is       80.0 secs

     total energy              =  -11423.76836632 Ry
     Harris-Foulkes estimate   =  -11428.38229135 Ry
     estimated scf accuracy    <       5.87820705 Ry

     iteration #  2     ecut=    25.00 Ry     beta= 0.70
     RMM-DIIS diagonalization
     ethr =  4.77E-04,  avg # of iterations =  4.0

     negative rho (up, down):  3.010E+00 0.000E+00

     total cpu time spent up to now is      121.9 secs

     total energy              =  -11411.93289121 Ry
     Harris-Foulkes estimate   =  -11438.87740137 Ry
     estimated scf accuracy    <     153.51437476 Ry

     iteration #  3     ecut=    25.00 Ry     beta= 0.70
     RMM-DIIS diagonalization
     ethr =  4.77E-04,  avg # of iterations =  3.7

     negative rho (up, down):  3.050E+00 0.000E+00

     total cpu time spent up to now is      160.8 secs

     total energy              =  -11426.43943404 Ry
     Harris-Foulkes estimate   =  -11427.77065977 Ry
     estimated scf accuracy    <       3.62694540 Ry

     iteration #  4     ecut=    25.00 Ry     beta= 0.70
     RMM-DIIS diagonalization
     ethr =  2.94E-04,  avg # of iterations =  2.7

     negative rho (up, down):  3.059E+00 0.000E+00

     total cpu time spent up to now is      191.8 secs

     total energy              =  -11426.69189466 Ry
     Harris-Foulkes estimate   =  -11427.16720960 Ry
     estimated scf accuracy    <       2.08493156 Ry

     iteration #  5     ecut=    25.00 Ry     beta= 0.70
     RMM-DIIS diagonalization
     ethr =  1.69E-04,  avg # of iterations =  2.6

     negative rho (up, down):  3.074E+00 0.000E+00

     total cpu time spent up to now is      222.5 secs

     total energy              =  -11426.81031999 Ry
     Harris-Foulkes estimate   =  -11427.39579758 Ry
     estimated scf accuracy    <       5.94637691 Ry

     iteration #  6     ecut=    25.00 Ry     beta= 0.70
     RMM-DIIS diagonalization
     ethr =  1.69E-04,  avg # of iterations =  2.5

     negative rho (up, down):  3.079E+00 0.000E+00

     total cpu time spent up to now is      252.3 secs

     total energy              =  -11427.07042381 Ry
     Harris-Foulkes estimate   =  -11427.09174650 Ry
     estimated scf accuracy    <       0.08434771 Ry

     iteration #  7     ecut=    25.00 Ry     beta= 0.70
     RMM-DIIS diagonalization
     ethr =  6.85E-06,  avg # of iterations =  3.5

     negative rho (up, down):  3.081E+00 0.000E+00

     total cpu time spent up to now is      290.9 secs

     total energy              =  -11427.05209470 Ry
     Harris-Foulkes estimate   =  -11427.12683588 Ry
     estimated scf accuracy    <       0.59767386 Ry

     iteration #  8     ecut=    25.00 Ry     beta= 0.70
     RMM-DIIS diagonalization
     ethr =  6.85E-06,  avg # of iterations =  2.8

     negative rho (up, down):  3.083E+00 0.000E+00

     total cpu time spent up to now is      322.7 secs

     total energy              =  -11427.06931703 Ry
     Harris-Foulkes estimate   =  -11427.11878313 Ry
     estimated scf accuracy    <       0.49541809 Ry

     iteration #  9     ecut=    25.00 Ry     beta= 0.70
     RMM-DIIS diagonalization
     ethr =  6.85E-06,  avg # of iterations =  2.8

     negative rho (up, down):  3.084E+00 0.000E+00

     total cpu time spent up to now is      354.3 secs

     total energy              =  -11427.09218988 Ry
     Harris-Foulkes estimate   =  -11427.09432009 Ry
     estimated scf accuracy    <       0.01012087 Ry

     iteration # 10     ecut=    25.00 Ry     beta= 0.70
     RMM-DIIS diagonalization
     ethr =  8.21E-07,  avg # of iterations =  2.9

     negative rho (up, down):  3.083E+00 0.000E+00

     total cpu time spent up to now is      386.9 secs

     total energy              =  -11427.09324866 Ry
     Harris-Foulkes estimate   =  -11427.09424310 Ry
     estimated scf accuracy    <       0.00418529 Ry

     iteration # 11     ecut=    25.00 Ry     beta= 0.70
     RMM-DIIS diagonalization
     ethr =  3.40E-07,  avg # of iterations =  3.0

     negative rho (up, down):  3.084E+00 0.000E+00

     total cpu time spent up to now is      420.1 secs

     total energy              =  -11427.09344737 Ry
     Harris-Foulkes estimate   =  -11427.09427764 Ry
     estimated scf accuracy    <       0.00337570 Ry

     iteration # 12     ecut=    25.00 Ry     beta= 0.70
     RMM-DIIS diagonalization
     ethr =  2.74E-07,  avg # of iterations =  2.7

     negative rho (up, down):  3.084E+00 0.000E+00

     total cpu time spent up to now is      451.4 secs

     total energy              =  -11427.09331782 Ry
     Harris-Foulkes estimate   =  -11427.09446264 Ry
     estimated scf accuracy    <       0.00984254 Ry

     iteration # 13     ecut=    25.00 Ry     beta= 0.70
     RMM-DIIS diagonalization
     ethr =  2.74E-07,  avg # of iterations =  2.8

     negative rho (up, down):  3.084E+00 0.000E+00

     total cpu time spent up to now is      483.5 secs

     total energy              =  -11427.09371625 Ry
     Harris-Foulkes estimate   =  -11427.09402055 Ry
     estimated scf accuracy    <       0.00179785 Ry

     iteration # 14     ecut=    25.00 Ry     beta= 0.70
     RMM-DIIS diagonalization
     ethr =  1.46E-07,  avg # of iterations =  2.7

     negative rho (up, down):  3.085E+00 0.000E+00

     total cpu time spent up to now is      515.0 secs

     total energy              =  -11427.09398840 Ry
     Harris-Foulkes estimate   =  -11427.09402351 Ry
     estimated scf accuracy    <       0.00010553 Ry

     iteration # 15     ecut=    25.00 Ry     beta= 0.70
     RMM-DIIS diagonalization
     ethr =  8.57E-09,  avg # of iterations =  3.2

     negative rho (up, down):  3.085E+00 0.000E+00

     total cpu time spent up to now is      549.9 secs

     total energy              =  -11427.09401244 Ry
     Harris-Foulkes estimate   =  -11427.09402210 Ry
     estimated scf accuracy    <       0.00002905 Ry

     iteration # 16     ecut=    25.00 Ry     beta= 0.70
     RMM-DIIS diagonalization
     ethr =  2.36E-09,  avg # of iterations =  3.3

     negative rho (up, down):  3.085E+00 0.000E+00

     total cpu time spent up to now is      586.2 secs

     total energy              =  -11427.09401090 Ry
     Harris-Foulkes estimate   =  -11427.09402665 Ry
     estimated scf accuracy    <       0.00006004 Ry

     iteration # 17     ecut=    25.00 Ry     beta= 0.70
     RMM-DIIS diagonalization
     ethr =  2.36E-09,  avg # of iterations =  3.1

     negative rho (up, down):  3.085E+00 0.000E+00

     total cpu time spent up to now is      620.1 secs

     total energy              =  -11427.09399738 Ry
     Harris-Foulkes estimate   =  -11427.09403719 Ry
     estimated scf accuracy    <       0.00025781 Ry

     iteration # 18     ecut=    25.00 Ry     beta= 0.70
     RMM-DIIS diagonalization
     ethr =  2.36E-09,  avg # of iterations =  2.9

     negative rho (up, down):  3.085E+00 0.000E+00

     total cpu time spent up to now is      652.5 secs

     total energy              =  -11427.09398838 Ry
     Harris-Foulkes estimate   =  -11427.09405307 Ry
     estimated scf accuracy    <       0.00072510 Ry

     iteration # 19     ecut=    25.00 Ry     beta= 0.70
     RMM-DIIS diagonalization
     ethr =  2.36E-09,  avg # of iterations =  2.8

     negative rho (up, down):  3.085E+00 0.000E+00

     total cpu time spent up to now is      684.4 secs

     total energy              =  -11427.09401021 Ry
     Harris-Foulkes estimate   =  -11427.09403294 Ry
     estimated scf accuracy    <       0.00019870 Ry

     iteration # 20     ecut=    25.00 Ry     beta= 0.70
     RMM-DIIS diagonalization
     ethr =  2.36E-09,  avg # of iterations =  2.7

     negative rho (up, down):  3.085E+00 0.000E+00

     total cpu time spent up to now is      715.5 secs

     total energy              =  -11427.09402103 Ry
     Harris-Foulkes estimate   =  -11427.09402196 Ry
     estimated scf accuracy    <       0.00000427 Ry

     iteration # 21     ecut=    25.00 Ry     beta= 0.70
     RMM-DIIS diagonalization
     ethr =  3.47E-10,  avg # of iterations =  2.7

     negative rho (up, down):  3.085E+00 0.000E+00

     total cpu time spent up to now is      747.0 secs

     total energy              =  -11427.09402145 Ry
     Harris-Foulkes estimate   =  -11427.09402170 Ry
     estimated scf accuracy    <       0.00000104 Ry

     iteration # 22     ecut=    25.00 Ry     beta= 0.70
     RMM-DIIS diagonalization
     ethr =  8.45E-11,  avg # of iterations =  2.9

     negative rho (up, down):  3.085E+00 0.000E+00

     total cpu time spent up to now is      779.4 secs

     End of self-consistent calculation

          k = 0.2500 0.5057 0.0000 ( 95386 PWs)   bands (ev):

    -8.0047  -7.7853  -7.3693  -7.1563  -6.9587  -6.8864  -6.8074  -6.6746
    -6.6108  -6.2899  -6.2193  -6.1889  -6.1049  -6.0372  -5.9301  -5.9278
    -5.8886  -5.8390  -5.8309  -5.8248  -5.7938  -5.7359  -5.7239  -5.6813
    -5.6674  -5.6494  -5.6453  -5.6400  -5.5497  -5.5383  -5.5308  -5.5226
    -5.5163  -5.5071  -5.4891  -5.4812  -5.4628  -5.4594  -5.4281  -5.3751
    -5.3689  -5.3536  -5.3514  -5.3170  -5.3098  -5.2938  -5.2911  -5.2336
    -5.2326  -5.2325  -5.2281  -5.2182  -5.1996  -5.1785  -5.1553  -5.1446
    -5.1297  -5.1243  -5.1156  -5.1140  -5.1104  -5.1091  -5.0879  -5.0674
    -5.0646  -5.0569  -5.0558  -5.0488  -5.0406  -5.0376  -5.0303  -4.9876
    -4.9819  -4.9668  -4.9636  -4.9480  -4.9341  -4.9323  -4.9287  -4.9267
    -4.9175  -4.9158  -4.9068  -4.9038  -4.8857  -4.8852  -4.8816  -4.8717
    -4.8717  -4.8620  -4.8594  -4.8486  -4.8279  -4.8268  -4.8246  -4.8219
    -4.7417  -4.7391  -4.7375  -4.7366  -4.7328  -4.7254  -4.7210  -4.7207
    -4.7201  -4.7119  -4.6994  -4.6846  -4.6741  -4.6164  -4.5999  -4.5969
    -4.5932  -4.5849  -4.5623  -4.5609  -4.5573  -4.5266  -4.4704  -4.4694
    -4.4507  -4.4136  -4.3978  -4.3950  -4.3934  -4.3930  -4.3915  -4.3852
    -4.3552  -4.3455  -4.3449  -4.3369  -4.3255  -4.3228  -4.3200  -4.3034
    -4.3019  -4.2737  -4.2643  -4.2572  -4.2475  -4.2450  -4.2292  -4.2104
    -4.1936  -4.1677  -4.1559  -4.1549  -4.1544  -4.1529  -4.1481  -4.1394
    -4.1371  -4.1043  -4.0970  -4.0833  -4.0773  -4.0761  -4.0697  -4.0542
    -4.0504  -4.0351  -4.0305  -4.0239  -4.0212  -4.0170  -4.0083  -3.9937
    -3.9866  -3.9705  -3.9585  -3.9274  -3.9138  -3.8984  -3.8929  -3.8894
    -3.8708  -3.8705  -3.8610  -3.8372  -3.8364  -3.8328  -3.8163  -3.8082
    -3.7858  -3.7799  -3.7390  -3.7356  -3.7263  -3.7239  -3.7147  -3.7100
    -3.7008  -3.6851  -3.6806  -3.6710  -3.6588  -3.6403  -3.6190  -3.6190
    -3.6171  -3.6160  -3.6054  -3.6016  -3.5989  -3.5950  -3.5915  -3.5795
    -3.5696  -3.5668  -3.5643  -3.5593  -3.5573  -3.5507  -3.5457  -3.5446
    -3.5433  -3.5340  -3.5234  -3.4921  -3.4821  -3.4561  -3.4538  -3.4427
    -3.4423  -3.4403  -3.4390  -3.4259  -3.4212  -3.4126  -3.4049  -3.3968
    -3.3877  -3.3795  -3.3738  -3.3718  -3.3702  -3.3693  -3.3641  -3.3561
    -3.3524  -3.3372  -3.3354  -3.3267  -3.3259  -3.3243  -3.3198  -3.3169
    -3.3132  -3.3128  -3.3089  -3.3084  -3.2995  -3.2967  -3.2917  -3.2859
    -3.2812  -3.2793  -3.2589  -3.2496  -3.2466  -3.2436  -3.2380  -3.2286
    -3.2195  -3.2187  -3.2140  -3.2100  -3.2020  -3.1996  -3.1888  -3.1803
    -3.1788  -3.1731  -3.1719  -3.1682  -3.1667  -3.1590  -3.1579  -3.1457
    -3.1455  -3.1214  -3.1210  -3.1104  -3.0981  -3.0904  -3.0842  -3.0578
    -3.0411  -3.0398  -3.0343  -3.0331  -3.0260  -3.0237  -3.0229  -3.0179
    -3.0171  -3.0161  -3.0154  -3.0089  -3.0022  -3.0013  -2.9891  -2.9847
    -2.9816  -2.9806  -2.9799  -2.9748  -2.9747  -2.9709  -2.9685  -2.9507
    -2.9149  -2.9129  -2.8899  -2.8757  -2.8740  -2.8622  -2.8595  -2.8491
    -2.8474  -2.8278  -2.8218  -2.8203  -2.7995  -2.7960  -2.7954  -2.7829
    -2.7795  -2.7752  -2.7672  -2.7639  -2.7500  -2.7490  -2.7466  -2.7419
    -2.7231  -2.7223  -2.7205  -2.7178  -2.6626  -2.6542  -2.6460  -2.6365
    -2.6294  -2.6259  -2.6213  -2.5954  -2.5799  -2.5696  -2.5672  -2.5667
    -2.5633  -2.5589  -2.5529  -2.5406  -2.5279  -2.5250  -2.5193  -2.5159
    -2.5088  -2.5070  -2.5009  -2.4927  -2.4897  -2.4861  -2.4803  -2.4791
    -2.4730  -2.4722  -2.4663  -2.4655  -2.4596  -2.4489  -2.4351  -2.4345
    -2.4063  -2.3999  -2.3981  -2.3741  -2.3701  -2.3631  -2.3557  -2.3556
    -2.3485  -2.3451  -2.3354  -2.3323  -2.3151  -2.3002  -2.2926  -2.2717
    -2.2683  -2.2665  -2.2635  -2.2486  -2.2431  -2.2334  -2.2315  -2.2149
    -2.2124  -2.2053  -2.2051  -2.1977  -2.1969  -2.1781  -2.1447  -2.1359
    -2.1302  -2.1057  -2.1022  -2.0846  -2.0673  -2.0483  -2.0473  -2.0440
    -2.0372  -2.0317  -2.0021  -1.9981  -1.9946  -1.9639  -1.9605  -1.9571
    -1.9559  -1.9518  -1.9479  -1.9451  -1.9391  -1.9386  -1.9368  -1.9307
    -1.9298  -1.9274  -1.9169  -1.9120  -1.9076  -1.9019  -1.8645  -1.8555
    -1.8548  -1.8384  -1.8308  -1.8271  -1.8230  -1.8169  -1.8159  -1.8134
    -1.8113  -1.8013  -1.8000  -1.7988  -1.7932  -1.7663  -1.7594  -1.7584
    -1.7573  -1.7481  -1.7430  -1.7423  -1.7364  -1.7363  -1.7264  -1.7237
    -1.7061  -1.7045  -1.6987  -1.6978  -1.6879  -1.6743  -1.6700  -1.6656
    -1.6633  -1.6585  -1.6506  -1.6286  -1.6129  -1.6036  -1.5992  -1.5973
    -1.5790  -1.5758  -1.5753  -1.5738  -1.5600  -1.5446  -1.5042  -1.4990
    -1.4925  -1.4879  -1.4798  -1.4789  -1.4704  -1.4671  -1.4597  -1.4579
    -1.4509  -1.4442  -1.4335  -1.4323  -1.4260  -1.4131  -1.4125  -1.4072
    -1.3995  -1.3815  -1.3716  -1.3683  -1.3628  -1.3578  -1.3452  -1.3394
    -1.3276  -1.3255  -1.3217  -1.3072  -1.3024  -1.2975  -1.2931  -1.2871
    -1.2870  -1.2777  -1.2764  -1.2669  -1.2644  -1.2552  -1.2535  -1.2495
    -1.2415  -1.2395  -1.2278  -1.2275  -1.2198  -1.2191  -1.2190  -1.2187
    -1.2152  -1.2086  -1.2058  -1.1778  -1.1765  -1.1705  -1.1564  -1.1553
    -1.1448  -1.1400  -1.1377  -1.1334  -1.1299  -1.1249  -1.1243  -1.1216
    -1.1187  -1.1074  -1.1058  -1.0983  -1.0872  -1.0827  -1.0798  -1.0779
    -1.0770  -1.0756  -1.0723  -1.0627  -1.0578  -1.0548  -1.0535  -1.0507
    -1.0500  -1.0440  -1.0043  -0.9809  -0.9696  -0.9648  -0.9521  -0.9371
    -0.9357  -0.9292  -0.9244  -0.9206  -0.9159  -0.9076  -0.9002  -0.8818
    -0.8779  -0.8613  -0.8299  -0.8279  -0.8258  -0.7657  -0.6679  -0.6315
    -0.6014  -0.5944  -0.5466  -0.4527  -0.3796  -0.1934  -0.1600  -0.1188
    -0.0034   0.0222   0.0574   0.1554   0.1622   0.1921   0.2707   0.2884
     0.3157   0.3348   0.5888   0.5923   0.6432   0.6720   0.7321   0.7784
     0.8028   0.8036   0.9242   0.9708   0.9833   1.1555   1.1641   1.1986
     1.3019   1.3264   1.3634   1.3877   1.4797   1.5214   1.5259   1.7955
     1.8683   1.8792   1.8973   1.9001   1.9102   1.9753   1.9822   2.0316
     2.0617   2.0735   2.1945   2.4012   2.4064   2.4085   2.4470   2.4515
     2.6433   2.6541   2.6777   2.7100   2.7217   2.7963   2.8418   3.1811
     3.2036   3.2180   3.2818   3.3296   3.3643   3.3780   3.5444   3.5477
     3.5701   3.6171   3.6260   3.7994   3.8065   3.8940   3.9031   4.0005
     4.0227   4.1244   4.1805   4.2441   4.2475   4.2705   4.3019   4.3975
     4.4722   4.4975   4.5212   4.5650   4.6632   4.8054   4.8117   4.8412
     4.8500   4.8525   4.8940   4.9671   4.9891   5.0742   5.0908   5.1946
     5.2017   5.2120   5.2382   5.2620   5.3016   5.4405   5.5257   5.5328
     5.5332   5.5445   5.6500   5.7198   5.7319   5.8369   5.8524   5.8740
     5.8959   5.9065   5.9914   6.0155   6.0165   6.0264   6.0424   6.1382
     6.1469   6.1650   6.2222   6.3064   6.4013   6.4471   6.5139   6.5228
     6.5876   6.6312   6.6524   6.6899   6.7351   6.7426   6.9682   7.0254
     7.0606   7.1203   7.1849   7.1926   7.1952   7.2771   7.3496   7.3505
     7.3913   7.4075   7.5053   7.5538   7.5595   7.5991   7.6634   7.6838
     7.7081   7.7333   7.8530   7.8605   7.9874   8.0093   8.0873   8.1103
     8.1531   8.1877   8.2038   8.2625   8.2901   8.3382   8.3817   8.4518
     8.5027   8.5495   8.5579   8.5870   8.6089   8.6221   8.6528   8.6693
     8.6760   8.6872   8.7661   8.8120   9.1842   9.2107   9.2297   9.2663
     9.2742   9.4136   9.4246   9.4453   9.4460   9.4537   9.5127   9.5369
     9.5601   9.6515   9.7172   9.8667   9.9141  10.3736  10.4701  10.7356

          k =-0.2500 0.5057 0.0000 ( 95386 PWs)   bands (ev):

    -8.0047  -7.7853  -7.3693  -7.1563  -6.9587  -6.8864  -6.8074  -6.6746
    -6.6108  -6.2899  -6.2193  -6.1889  -6.1049  -6.0372  -5.9301  -5.9278
    -5.8886  -5.8390  -5.8309  -5.8248  -5.7938  -5.7359  -5.7239  -5.6813
    -5.6674  -5.6494  -5.6453  -5.6400  -5.5497  -5.5383  -5.5308  -5.5226
    -5.5163  -5.5071  -5.4891  -5.4812  -5.4628  -5.4594  -5.4281  -5.3751
    -5.3689  -5.3536  -5.3514  -5.3170  -5.3098  -5.2938  -5.2911  -5.2336
    -5.2326  -5.2325  -5.2281  -5.2182  -5.1996  -5.1785  -5.1553  -5.1446
    -5.1297  -5.1243  -5.1156  -5.1140  -5.1104  -5.1091  -5.0879  -5.0674
    -5.0646  -5.0569  -5.0558  -5.0488  -5.0406  -5.0376  -5.0303  -4.9876
    -4.9819  -4.9668  -4.9636  -4.9480  -4.9341  -4.9323  -4.9287  -4.9267
    -4.9175  -4.9158  -4.9068  -4.9038  -4.8857  -4.8852  -4.8816  -4.8718
    -4.8717  -4.8620  -4.8594  -4.8486  -4.8279  -4.8268  -4.8246  -4.8219
    -4.7417  -4.7391  -4.7375  -4.7366  -4.7328  -4.7254  -4.7210  -4.7207
    -4.7201  -4.7119  -4.6994  -4.6846  -4.6741  -4.6164  -4.5999  -4.5969
    -4.5932  -4.5849  -4.5623  -4.5609  -4.5573  -4.5266  -4.4704  -4.4694
    -4.4507  -4.4136  -4.3978  -4.3950  -4.3933  -4.3930  -4.3915  -4.3852
    -4.3552  -4.3455  -4.3449  -4.3369  -4.3255  -4.3228  -4.3200  -4.3034
    -4.3019  -4.2737  -4.2643  -4.2572  -4.2475  -4.2450  -4.2292  -4.2104
    -4.1936  -4.1677  -4.1559  -4.1549  -4.1544  -4.1529  -4.1482  -4.1394
    -4.1371  -4.1043  -4.0970  -4.0833  -4.0773  -4.0761  -4.0697  -4.0542
    -4.0504  -4.0351  -4.0305  -4.0238  -4.0212  -4.0171  -4.0083  -3.9937
    -3.9866  -3.9705  -3.9584  -3.9274  -3.9138  -3.8984  -3.8929  -3.8894
    -3.8708  -3.8705  -3.8610  -3.8372  -3.8364  -3.8328  -3.8163  -3.8082
    -3.7858  -3.7799  -3.7390  -3.7356  -3.7263  -3.7239  -3.7147  -3.7100
    -3.7008  -3.6851  -3.6806  -3.6710  -3.6588  -3.6403  -3.6190  -3.6190
    -3.6171  -3.6160  -3.6054  -3.6016  -3.5989  -3.5950  -3.5915  -3.5795
    -3.5696  -3.5668  -3.5643  -3.5593  -3.5573  -3.5507  -3.5457  -3.5447
    -3.5433  -3.5340  -3.5234  -3.4921  -3.4821  -3.4561  -3.4538  -3.4427
    -3.4423  -3.4403  -3.4390  -3.4258  -3.4212  -3.4126  -3.4049  -3.3968
    -3.3877  -3.3795  -3.3738  -3.3718  -3.3701  -3.3693  -3.3641  -3.3561
    -3.3524  -3.3372  -3.3354  -3.3267  -3.3259  -3.3242  -3.3198  -3.3169
    -3.3132  -3.3128  -3.3090  -3.3084  -3.2995  -3.2968  -3.2917  -3.2859
    -3.2812  -3.2793  -3.2589  -3.2495  -3.2466  -3.2436  -3.2380  -3.2286
    -3.2195  -3.2187  -3.2140  -3.2100  -3.2020  -3.1996  -3.1888  -3.1803
    -3.1788  -3.1731  -3.1719  -3.1682  -3.1667  -3.1590  -3.1579  -3.1457
    -3.1455  -3.1214  -3.1210  -3.1104  -3.0981  -3.0904  -3.0842  -3.0578
    -3.0412  -3.0398  -3.0343  -3.0331  -3.0260  -3.0237  -3.0229  -3.0179
    -3.0171  -3.0161  -3.0154  -3.0089  -3.0022  -3.0013  -2.9892  -2.9847
    -2.9816  -2.9805  -2.9798  -2.9748  -2.9748  -2.9709  -2.9685  -2.9507
    -2.9149  -2.9129  -2.8899  -2.8756  -2.8740  -2.8622  -2.8595  -2.8491
    -2.8474  -2.8278  -2.8218  -2.8203  -2.7995  -2.7960  -2.7954  -2.7829
    -2.7795  -2.7752  -2.7672  -2.7639  -2.7500  -2.7490  -2.7466  -2.7419
    -2.7231  -2.7223  -2.7205  -2.7178  -2.6626  -2.6541  -2.6460  -2.6365
    -2.6294  -2.6259  -2.6213  -2.5954  -2.5799  -2.5696  -2.5672  -2.5667
    -2.5634  -2.5588  -2.5529  -2.5406  -2.5279  -2.5250  -2.5193  -2.5159
    -2.5088  -2.5070  -2.5010  -2.4927  -2.4897  -2.4861  -2.4803  -2.4791
    -2.4730  -2.4722  -2.4664  -2.4655  -2.4596  -2.4489  -2.4351  -2.4345
    -2.4063  -2.3999  -2.3981  -2.3741  -2.3701  -2.3631  -2.3557  -2.3556
    -2.3485  -2.3451  -2.3354  -2.3323  -2.3151  -2.3002  -2.2926  -2.2717
    -2.2683  -2.2665  -2.2635  -2.2486  -2.2431  -2.2334  -2.2315  -2.2149
    -2.2124  -2.2053  -2.2051  -2.1977  -2.1969  -2.1781  -2.1447  -2.1359
    -2.1302  -2.1057  -2.1022  -2.0846  -2.0673  -2.0483  -2.0473  -2.0440
    -2.0372  -2.0317  -2.0021  -1.9981  -1.9947  -1.9639  -1.9605  -1.9571
    -1.9559  -1.9517  -1.9479  -1.9451  -1.9391  -1.9386  -1.9368  -1.9307
    -1.9297  -1.9273  -1.9169  -1.9120  -1.9076  -1.9019  -1.8645  -1.8555
    -1.8548  -1.8384  -1.8308  -1.8271  -1.8230  -1.8169  -1.8159  -1.8134
    -1.8113  -1.8013  -1.8000  -1.7988  -1.7932  -1.7663  -1.7594  -1.7584
    -1.7573  -1.7481  -1.7430  -1.7423  -1.7364  -1.7363  -1.7264  -1.7237
    -1.7061  -1.7045  -1.6987  -1.6978  -1.6879  -1.6743  -1.6700  -1.6656
    -1.6633  -1.6585  -1.6506  -1.6286  -1.6129  -1.6036  -1.5992  -1.5973
    -1.5790  -1.5758  -1.5753  -1.5738  -1.5600  -1.5446  -1.5042  -1.4990
    -1.4925  -1.4879  -1.4798  -1.4789  -1.4705  -1.4671  -1.4597  -1.4579
    -1.4509  -1.4442  -1.4335  -1.4323  -1.4260  -1.4131  -1.4125  -1.4072
    -1.3995  -1.3815  -1.3716  -1.3683  -1.3628  -1.3578  -1.3452  -1.3395
    -1.3276  -1.3255  -1.3217  -1.3072  -1.3024  -1.2975  -1.2931  -1.2871
    -1.2870  -1.2777  -1.2764  -1.2669  -1.2644  -1.2552  -1.2535  -1.2495
    -1.2415  -1.2395  -1.2278  -1.2275  -1.2198  -1.2191  -1.2190  -1.2187
    -1.2152  -1.2086  -1.2058  -1.1778  -1.1765  -1.1705  -1.1564  -1.1553
    -1.1448  -1.1400  -1.1377  -1.1334  -1.1299  -1.1249  -1.1243  -1.1216
    -1.1187  -1.1074  -1.1058  -1.0983  -1.0872  -1.0827  -1.0799  -1.0779
    -1.0770  -1.0756  -1.0723  -1.0627  -1.0578  -1.0548  -1.0535  -1.0507
    -1.0500  -1.0440  -1.0043  -0.9809  -0.9696  -0.9648  -0.9521  -0.9372
    -0.9356  -0.9292  -0.9244  -0.9206  -0.9159  -0.9076  -0.9001  -0.8818
    -0.8779  -0.8613  -0.8299  -0.8279  -0.8258  -0.7657  -0.6679  -0.6315
    -0.6014  -0.5944  -0.5466  -0.4527  -0.3796  -0.1934  -0.1600  -0.1188
    -0.0034   0.0222   0.0574   0.1554   0.1622   0.1921   0.2707   0.2884
     0.3157   0.3348   0.5888   0.5923   0.6432   0.6720   0.7321   0.7784
     0.8028   0.8037   0.9242   0.9708   0.9833   1.1555   1.1641   1.1986
     1.3019   1.3264   1.3634   1.3877   1.4797   1.5214   1.5259   1.7955
     1.8683   1.8792   1.8973   1.9001   1.9102   1.9753   1.9822   2.0316
     2.0617   2.0735   2.1945   2.4012   2.4064   2.4085   2.4470   2.4515
     2.6433   2.6541   2.6777   2.7100   2.7217   2.7963   2.8418   3.1811
     3.2036   3.2180   3.2818   3.3296   3.3643   3.3780   3.5444   3.5477
     3.5701   3.6171   3.6260   3.7994   3.8065   3.8940   3.9031   4.0005
     4.0227   4.1244   4.1805   4.2441   4.2475   4.2705   4.3019   4.3975
     4.4722   4.4975   4.5212   4.5650   4.6632   4.8054   4.8117   4.8412
     4.8500   4.8525   4.8941   4.9671   4.9891   5.0742   5.0908   5.1946
     5.2016   5.2120   5.2382   5.2620   5.3017   5.4406   5.5257   5.5328
     5.5332   5.5445   5.6500   5.7197   5.7319   5.8369   5.8524   5.8733
     5.8959   5.9065   5.9914   6.0159   6.0168   6.0265   6.0423   6.1381
     6.1474   6.1649   6.2221   6.3065   6.4004   6.4466   6.5137   6.5232
     6.5874   6.6303   6.6533   6.6897   6.7324   6.7458   6.9689   7.0223
     7.0577   7.1216   7.1815   7.1961   7.1983   7.2771   7.3463   7.3506
     7.3926   7.4089   7.5051   7.5509   7.5571   7.5991   7.6636   7.6870
     7.7113   7.7345   7.8549   7.8589   7.9847   8.0122   8.0870   8.1076
     8.1578   8.1881   8.2018   8.2577   8.3112   8.3404   8.3896   8.4538
     8.5030   8.5424   8.5599   8.5742   8.5864   8.6025   8.6090   8.6664
     8.6725   8.6797   8.6897   8.7752   9.1921   9.2426   9.2428   9.2528
     9.2643   9.3776   9.3881   9.4148   9.4321   9.4416   9.5434   9.5549
     9.5826   9.5911   9.7233   9.8586   9.9343  10.3707  10.4702  10.7316

     the Fermi energy is     0.7846 ev

!    total energy              =  -11427.09402088 Ry
     Harris-Foulkes estimate   =  -11427.09402174 Ry
     estimated scf accuracy    <       0.00000087 Ry

     The total energy is the sum of the following terms:

     one-electron contribution = -129707.72409562 Ry
     hartree contribution      =   65677.90785132 Ry
     xc contribution           =   -5523.82318346 Ry
     ewald contribution        =   58126.48229571 Ry
     smearing contrib. (-TS)   =       0.06311117 Ry

     convergence has been achieved in  22 iterations

     negative rho (up, down):  3.085E+00 0.000E+00

     Forces acting on atoms (cartesian axes, Ry/au):

     atom    1 type  1   force =    -0.00098010    0.00016653    0.00839763
     atom    2 type  1   force =    -0.00097327   -0.00022121    0.00812150
     atom    3 type  1   force =    -0.00014430    0.00022437    0.00903541
     atom    4 type  1   force =    -0.00014475   -0.00016317    0.00875432
     atom    5 type  1   force =     0.00005505    0.00025259    0.00905494
     atom    6 type  1   force =     0.00005697   -0.00013095    0.00877595
     atom    7 type  1   force =    -0.00012595    0.00023721    0.00897404
     atom    8 type  1   force =    -0.00011317   -0.00015220    0.00869272
     atom    9 type  1   force =     0.00009987    0.00024061    0.00895416
     atom   10 type  1   force =     0.00010498   -0.00015724    0.00866778
     atom   11 type  1   force =    -0.00008933    0.00025323    0.00901667
     atom   12 type  1   force =    -0.00009876   -0.00014585    0.00873284
     atom   13 type  1   force =     0.00081325    0.00027597    0.00884487
     atom   14 type  1   force =     0.00080086   -0.00012094    0.00856682
     atom   15 type  1   force =    -0.00131081    0.00041191   -0.00525141
     atom   16 type  1   force =    -0.00130162   -0.00006739   -0.00536642
     atom   17 type  1   force =    -0.00015076    0.00038466   -0.00526824
     atom   18 type  1   force =    -0.00014627   -0.00010355   -0.00538303
     atom   19 type  1   force =     0.00012489    0.00038683   -0.00533074
     atom   20 type  1   force =     0.00012334   -0.00009624   -0.00544298
     atom   21 type  1   force =    -0.00010884    0.00039627   -0.00542110
     atom   22 type  1   force =    -0.00010967   -0.00009862   -0.00552894
     atom   23 type  1   force =     0.00014944    0.00040547   -0.00547084
     atom   24 type  1   force =     0.00014903   -0.00010687   -0.00557478
     atom   25 type  1   force =    -0.00016822    0.00039681   -0.00545555
     atom   26 type  1   force =    -0.00017084   -0.00011136   -0.00556147
     atom   27 type  1   force =     0.00096866    0.00038922   -0.00533483
     atom   28 type  1   force =     0.00096412   -0.00010021   -0.00544621
     atom   29 type  1   force =    -0.00058527   -0.00011238    0.00861778
     atom   30 type  1   force =    -0.00058206   -0.00049373    0.00867293
     atom   31 type  1   force =    -0.00004920   -0.00013329    0.00881732
     atom   32 type  1   force =    -0.00004609   -0.00051501    0.00887029
     atom   33 type  1   force =     0.00008037   -0.00014241    0.00872493
     atom   34 type  1   force =     0.00007724   -0.00052869    0.00877793
     atom   35 type  1   force =    -0.00001408   -0.00011942    0.00873450
     atom   36 type  1   force =    -0.00001933   -0.00052658    0.00879243
     atom   37 type  1   force =    -0.00010457   -0.00012186    0.00868465
     atom   38 type  1   force =    -0.00010536   -0.00053748    0.00874255
     atom   39 type  1   force =     0.00011038   -0.00013642    0.00876286
     atom   40 type  1   force =     0.00011082   -0.00053627    0.00882070
     atom   41 type  1   force =     0.00092950   -0.00022913    0.00809132
     atom   42 type  1   force =     0.00093397   -0.00060338    0.00814843
     atom   43 type  1   force =    -0.00075102   -0.00011553   -0.00527712
     atom   44 type  1   force =    -0.00075335   -0.00061417   -0.00524033
     atom   45 type  1   force =    -0.00000940   -0.00011387   -0.00534129
     atom   46 type  1   force =    -0.00000511   -0.00062042   -0.00530226
     atom   47 type  1   force =     0.00016304   -0.00010759   -0.00542095
     atom   48 type  1   force =     0.00015631   -0.00061118   -0.00538616
     atom   49 type  1   force =     0.00002026   -0.00011172   -0.00548496
     atom   50 type  1   force =     0.00000944   -0.00061360   -0.00545995
     atom   51 type  1   force =    -0.00013598   -0.00011118   -0.00550217
     atom   52 type  1   force =    -0.00013351   -0.00061111   -0.00548162
     atom   53 type  1   force =     0.00006237   -0.00012448   -0.00545086
     atom   54 type  1   force =     0.00007310   -0.00062070   -0.00542670
     atom   55 type  1   force =     0.00114468   -0.00008511   -0.00533459
     atom   56 type  1   force =     0.00115147   -0.00056807   -0.00530167
     atom   57 type  1   force =    -0.00107200    0.00068699   -0.00840622
     atom   58 type  1   force =    -0.00105851    0.00023802   -0.00807942
     atom   59 type  1   force =    -0.00006364    0.00064083   -0.00904278
     atom   60 type  1   force =    -0.00006237    0.00018277   -0.00871234
     atom   61 type  1   force =     0.00027742    0.00061068   -0.00907472
     atom   62 type  1   force =     0.00026928    0.00015277   -0.00874636
     atom   63 type  1   force =     0.00004624    0.00062772   -0.00901561
     atom   64 type  1   force =     0.00003964    0.00016986   -0.00868787
     atom   65 type  1   force =     0.00007446    0.00062832   -0.00900928
     atom   66 type  1   force =     0.00007273    0.00016996   -0.00868087
     atom   67 type  1   force =    -0.00026230    0.00061520   -0.00906659
     atom   68 type  1   force =    -0.00025993    0.00016022   -0.00873971
     atom   69 type  1   force =     0.00062994    0.00059055   -0.00887415
     atom   70 type  1   force =     0.00063323    0.00013803   -0.00854941
     atom   71 type  1   force =    -0.00076240    0.00076329    0.00534767
     atom   72 type  1   force =    -0.00075478    0.00022115    0.00550200
     atom   73 type  1   force =     0.00007449    0.00076505    0.00532450
     atom   74 type  1   force =     0.00007114    0.00022398    0.00547973
     atom   75 type  1   force =     0.00026665    0.00075457    0.00517561
     atom   76 type  1   force =     0.00026030    0.00021757    0.00533540
     atom   77 type  1   force =     0.00004879    0.00076201    0.00507339
     atom   78 type  1   force =     0.00004734    0.00021930    0.00524096
     atom   79 type  1   force =    -0.00019122    0.00075969    0.00512268
     atom   80 type  1   force =    -0.00019015    0.00021744    0.00529232
     atom   81 type  1   force =    -0.00001936    0.00076805    0.00524846
     atom   82 type  1   force =    -0.00002108    0.00023171    0.00541118
     atom   83 type  1   force =     0.00107866    0.00071627    0.00531513
     atom   84 type  1   force =     0.00107823    0.00018845    0.00547055
     atom   85 type  1   force =    -0.00134523    0.00004981    0.00549665
     atom   86 type  1   force =    -0.00135411   -0.00074706    0.00566812
     atom   87 type  1   force =    -0.00011073    0.00009055    0.00552104
     atom   88 type  1   force =    -0.00010943   -0.00072746    0.00569827
     atom   89 type  1   force =     0.00022800    0.00008362    0.00540530
     atom   90 type  1   force =     0.00023061   -0.00073041    0.00558235
     atom   91 type  1   force =    -0.00003009    0.00007332    0.00527526
     atom   92 type  1   force =    -0.00003445   -0.00073045    0.00544283
     atom   93 type  1   force =     0.00013319    0.00007204    0.00525379
     atom   94 type  1   force =     0.00013402   -0.00072851    0.00541294
     atom   95 type  1   force =    -0.00025153    0.00008079    0.00535613
     atom   96 type  1   force =    -0.00024764   -0.00072041    0.00551545
     atom   97 type  1   force =     0.00088274    0.00007748    0.00543173
     atom   98 type  1   force =     0.00088389   -0.00072060    0.00559740
     atom   99 type  1   force =    -0.00059268    0.00012025   -0.00856194
     atom  100 type  1   force =    -0.00059462   -0.00029746   -0.00862626
     atom  101 type  1   force =     0.00011897    0.00014501   -0.00877017
     atom  102 type  1   force =     0.00011993   -0.00027468   -0.00883429
     atom  103 type  1   force =     0.00029353    0.00014822   -0.00869474
     atom  104 type  1   force =     0.00029377   -0.00025805   -0.00875895
     atom  105 type  1   force =     0.00005516    0.00012646   -0.00872291
     atom  106 type  1   force =     0.00005479   -0.00026793   -0.00879090
     atom  107 type  1   force =    -0.00021614    0.00013411   -0.00868369
     atom  108 type  1   force =    -0.00021450   -0.00025547   -0.00875093
     atom  109 type  1   force =    -0.00007693    0.00014261   -0.00874699
     atom  110 type  1   force =    -0.00007654   -0.00025126   -0.00881221
     atom  111 type  1   force =     0.00078565    0.00022947   -0.00804648
     atom  112 type  1   force =     0.00078717   -0.00016555   -0.00811215

     Total force =     0.076987     Total SCF correction =     0.005259

     Writing output data file ./ausurf.save/
 
     init_run     :     15.14s CPU     16.09s WALL (       1 calls)
     electrons    :    742.98s CPU    763.07s WALL (       1 calls)
     forces       :      9.24s CPU      9.56s WALL (       1 calls)

     Called by init_run:
     wfcinit      :     12.71s CPU     13.33s WALL (       1 calls)
     potinit      :      0.46s CPU      0.57s WALL (       1 calls)
     hinit0       :      0.63s CPU      0.67s WALL (       1 calls)

     Called by electrons:
     c_bands      :    650.89s CPU    666.24s WALL (      23 calls)
     sum_band     :     79.33s CPU     81.86s WALL (      23 calls)
     v_of_rho     :      4.10s CPU      4.30s WALL (      23 calls)
     newd         :      7.77s CPU      9.72s WALL (      23 calls)
     mix_rho      :      0.91s CPU      0.94s WALL (      23 calls)

     Called by c_bands:
     init_us_2    :      4.28s CPU      4.33s WALL (      96 calls)
     crmmdiagg    :    291.48s CPU    302.45s WALL (      46 calls)
     wfcrot       :    251.30s CPU    255.43s WALL (      44 calls)
     gsorth       :    115.44s CPU    115.92s WALL (      46 calls)

     Called by sum_band:
     sum_band:bec :      0.62s CPU      0.64s WALL (      46 calls)
     addusdens    :      6.78s CPU      8.77s WALL (      23 calls)

     Called by *rmmdiagg:
     h_psi        :    324.37s CPU    327.75s WALL (     232 calls)
     s_psi        :     89.29s CPU     90.26s WALL (     232 calls)
     cdiaghg      :      6.42s CPU      7.01s WALL (      44 calls)

     Called by h_psi:
     h_psi:calbec :     90.88s CPU     91.15s WALL (     232 calls)
     vloc_psi     :    140.68s CPU    142.50s WALL (     232 calls)
     add_vuspsi   :     89.58s CPU     90.52s WALL (     232 calls)

     General routines
     calbec       :    132.04s CPU    132.43s WALL (     286 calls)
     fft          :      4.34s CPU      4.43s WALL (     309 calls)
     ffts         :      0.10s CPU      0.14s WALL (      46 calls)
     fftw         :    153.24s CPU    155.16s WALL (  224534 calls)
     interpolate  :      0.36s CPU      0.41s WALL (      23 calls)
 
     Parallel routines
     fft_scatt_xy :     25.56s CPU     25.90s WALL (  224889 calls)
     fft_scatt_yz :     55.53s CPU     56.27s WALL (  224889 calls)
 
     PWSCF        :  12m49.36s CPU  13m51.65s WALL

 
   This run was terminated on:  13:32:22  16Jul2020            

=------------------------------------------------------------------------------=
   JOB DONE.
=------------------------------------------------------------------------------=
