
     Program PWSCF v.6.5 starts on 16Jul2020 at 14:11:39 

     This program is part of the open-source Quantum ESPRESSO suite
     for quantum simulation of materials; please cite
         "P. Giannozzi et al., J. Phys.:Condens. Matter 21 395502 (2009);
         "P. Giannozzi et al., J. Phys.:Condens. Matter 29 465901 (2017);
          URL http://www.quantum-espresso.org", 
     in publications or presentations arising from this work. More details at
     http://www.quantum-espresso.org/quote

     Parallel version (MPI & OpenMP), running on     576 processor cores
     Number of MPI processes:               576
     Threads/MPI process:                     1

     MPI processes distributed on    16 nodes
     R & G space division:  proc/nbgrp/npool/nimage =     576
     Reading input from ausurf_rmm.in

     Current dimensions of program PWSCF are:
     Max number of different atomic species (ntypx) = 10
     Max number of k-points (npk) =  40000
     Max angular momentum in pseudopotentials (lmaxx) =  3

     Subspace diagonalization in iterative solution of the eigenvalue problem:
     one sub-group per band group will be used
     scalapack distributed-memory algorithm (size of sub-group: 24* 24 procs)

 
     Parallelization info
     --------------------
     sticks:   dense  smooth     PW     G-vecs:    dense   smooth      PW
     Min          20      10      2                 3732     1316     154
     Max          21      11      3                 3767     1337     197
     Sum       11837    5915   1537              2158381   763307  100747
 

     Title: 
      DEISA pw benchmark                                                        


     bravais-lattice index     =            8
     lattice parameter (alat)  =      38.7583  a.u.
     unit-cell volume          =   45191.4962 (a.u.)^3
     number of atoms/cell      =          112
     number of atomic types    =            1
     number of electrons       =      1232.00
     number of Kohn-Sham states=          800
     kinetic-energy cutoff     =      25.0000  Ry
     charge density cutoff     =     200.0000  Ry
     convergence threshold     =      1.0E-06
     mixing beta               =       0.7000
     number of iterations used =            8  plain     mixing
     Exchange-correlation=  SLA  PW   PBE  PBE
                           (   1   4   3   4   0   0   0)

     celldm(1)=  38.758300  celldm(2)=   0.494393  celldm(3)=   1.569966
     celldm(4)=   0.000000  celldm(5)=   0.000000  celldm(6)=   0.000000

     crystal axes: (cart. coord. in units of alat)
               a(1) = (   1.000000   0.000000   0.000000 )  
               a(2) = (   0.000000   0.494393   0.000000 )  
               a(3) = (   0.000000   0.000000   1.569966 )  

     reciprocal axes: (cart. coord. in units 2 pi/alat)
               b(1) = (  1.000000  0.000000  0.000000 )  
               b(2) = (  0.000000  2.022682  0.000000 )  
               b(3) = (  0.000000  0.000000  0.636956 )  


     PseudoPot. # 1 for Au read from file:
     ./Au.pbe-nd-van.UPF
     MD5 check sum: deb5c07af10777505a79e28f5b4b4115
     Pseudo is Ultrasoft + core correction, Zval = 11.0
     Generated by new atomic code, or converted to UPF format
     Using radial grid of  985 points,  3 beta functions with: 
                l(1) =   1
                l(2) =   2
                l(3) =   2
     Q(r) pseudized with  8 coefficients,  rinner =    1.100   1.100   1.100
                                                       1.100   1.100

     atomic species   valence    mass     pseudopotential
        AU            11.00   196.96000     Au( 1.00)

     No symmetry found



   Cartesian axes

     site n.     atom                  positions (alat units)
         1           AU  tau(   1) = (   1.4278395   1.9784974   0.3497317  )
         2           AU  tau(   2) = (   1.4278395   1.7313987   0.3497317  )
         3           AU  tau(   3) = (   1.5706478   1.9784974   0.3497317  )
         4           AU  tau(   4) = (   1.5706478   1.7313987   0.3497317  )
         5           AU  tau(   5) = (   1.7134072   1.9784974   0.3497317  )
         6           AU  tau(   6) = (   1.7134072   1.7313987   0.3497317  )
         7           AU  tau(   7) = (   1.8562156   1.9784974   0.3497317  )
         8           AU  tau(   8) = (   1.8562156   1.7313987   0.3497317  )
         9           AU  tau(   9) = (   1.9989753   1.9784974   0.3497317  )
        10           AU  tau(  10) = (   1.9989753   1.7313987   0.3497317  )
        11           AU  tau(  11) = (   2.1417836   1.9784974   0.3497317  )
        12           AU  tau(  12) = (   2.1417836   1.7313987   0.3497317  )
        13           AU  tau(  13) = (   2.2845431   1.9784974   0.3497317  )
        14           AU  tau(  14) = (   2.2845431   1.7313987   0.3497317  )
        15           AU  tau(  15) = (   1.4278395   2.0609450   0.2331545  )
        16           AU  tau(  16) = (   1.4278395   1.8138461   0.2331545  )
        17           AU  tau(  17) = (   1.5706478   2.0609450   0.2331545  )
        18           AU  tau(  18) = (   1.5706478   1.8138461   0.2331545  )
        19           AU  tau(  19) = (   1.7134072   2.0609450   0.2331545  )
        20           AU  tau(  20) = (   1.7134072   1.8138461   0.2331545  )
        21           AU  tau(  21) = (   1.8562156   2.0609450   0.2331545  )
        22           AU  tau(  22) = (   1.8562156   1.8138461   0.2331545  )
        23           AU  tau(  23) = (   1.9989753   2.0609450   0.2331545  )
        24           AU  tau(  24) = (   1.9989753   1.8138461   0.2331545  )
        25           AU  tau(  25) = (   2.1417836   2.0609450   0.2331545  )
        26           AU  tau(  26) = (   2.1417836   1.8138461   0.2331545  )
        27           AU  tau(  27) = (   2.2845431   2.0609450   0.2331545  )
        28           AU  tau(  28) = (   2.2845431   1.8138461   0.2331545  )
        29           AU  tau(  29) = (   1.4992193   2.1021445   0.3497317  )
        30           AU  tau(  30) = (   1.4992193   1.8550456   0.3497317  )
        31           AU  tau(  31) = (   1.6420276   2.1021445   0.3497317  )
        32           AU  tau(  32) = (   1.6420276   1.8550456   0.3497317  )
        33           AU  tau(  33) = (   1.7847871   2.1021445   0.3497317  )
        34           AU  tau(  34) = (   1.7847871   1.8550456   0.3497317  )
        35           AU  tau(  35) = (   1.9275954   2.1021445   0.3497317  )
        36           AU  tau(  36) = (   1.9275954   1.8550456   0.3497317  )
        37           AU  tau(  37) = (   2.0704038   2.1021445   0.3497317  )
        38           AU  tau(  38) = (   2.0704038   1.8550456   0.3497317  )
        39           AU  tau(  39) = (   2.2131632   2.1021445   0.3497317  )
        40           AU  tau(  40) = (   2.2131632   1.8550456   0.3497317  )
        41           AU  tau(  41) = (   2.3559716   2.1021445   0.3497317  )
        42           AU  tau(  42) = (   2.3559716   1.8550456   0.3497317  )
        43           AU  tau(  43) = (   1.4992193   1.6901992   0.2331545  )
        44           AU  tau(  44) = (   1.4992193   1.9374930   0.2331545  )
        45           AU  tau(  45) = (   1.6420276   1.6901992   0.2331545  )
        46           AU  tau(  46) = (   1.6420276   1.9374930   0.2331545  )
        47           AU  tau(  47) = (   1.7847871   1.6901992   0.2331545  )
        48           AU  tau(  48) = (   1.7847871   1.9374930   0.2331545  )
        49           AU  tau(  49) = (   1.9275954   1.6901992   0.2331545  )
        50           AU  tau(  50) = (   1.9275954   1.9374930   0.2331545  )
        51           AU  tau(  51) = (   2.0704038   1.6901992   0.2331545  )
        52           AU  tau(  52) = (   2.0704038   1.9374930   0.2331545  )
        53           AU  tau(  53) = (   2.2131632   1.6901992   0.2331545  )
        54           AU  tau(  54) = (   2.2131632   1.9374930   0.2331545  )
        55           AU  tau(  55) = (   2.3559716   1.6901992   0.2331545  )
        56           AU  tau(  56) = (   2.3559716   1.9374930   0.2331545  )
        57           AU  tau(  57) = (   1.4278395   1.9784974   0.0000000  )
        58           AU  tau(  58) = (   1.4278395   1.7313987   0.0000000  )
        59           AU  tau(  59) = (   1.5706478   1.9784974   0.0000000  )
        60           AU  tau(  60) = (   1.5706478   1.7313987   0.0000000  )
        61           AU  tau(  61) = (   1.7134072   1.9784974   0.0000000  )
        62           AU  tau(  62) = (   1.7134072   1.7313987   0.0000000  )
        63           AU  tau(  63) = (   1.8562156   1.9784974   0.0000000  )
        64           AU  tau(  64) = (   1.8562156   1.7313987   0.0000000  )
        65           AU  tau(  65) = (   1.9989753   1.9784974   0.0000000  )
        66           AU  tau(  66) = (   1.9989753   1.7313987   0.0000000  )
        67           AU  tau(  67) = (   2.1417836   1.9784974   0.0000000  )
        68           AU  tau(  68) = (   2.1417836   1.7313987   0.0000000  )
        69           AU  tau(  69) = (   2.2845431   1.9784974   0.0000000  )
        70           AU  tau(  70) = (   2.2845431   1.7313987   0.0000000  )
        71           AU  tau(  71) = (   1.4992193   2.0196968   0.1165772  )
        72           AU  tau(  72) = (   1.4992193   1.7725979   0.1165772  )
        73           AU  tau(  73) = (   1.6420276   2.0196968   0.1165772  )
        74           AU  tau(  74) = (   1.6420276   1.7725979   0.1165772  )
        75           AU  tau(  75) = (   1.7847871   2.0196968   0.1165772  )
        76           AU  tau(  76) = (   1.7847871   1.7725979   0.1165772  )
        77           AU  tau(  77) = (   1.9275954   2.0196968   0.1165772  )
        78           AU  tau(  78) = (   1.9275954   1.7725979   0.1165772  )
        79           AU  tau(  79) = (   2.0704038   2.0196968   0.1165772  )
        80           AU  tau(  80) = (   2.0704038   1.7725979   0.1165772  )
        81           AU  tau(  81) = (   2.2131632   2.0196968   0.1165772  )
        82           AU  tau(  82) = (   2.2131632   1.7725979   0.1165772  )
        83           AU  tau(  83) = (   2.3559716   2.0196968   0.1165772  )
        84           AU  tau(  84) = (   2.3559716   1.7725979   0.1165772  )
        85           AU  tau(  85) = (   1.4278395   2.1433437   0.1165772  )
        86           AU  tau(  86) = (   1.4278395   1.8962938   0.1165772  )
        87           AU  tau(  87) = (   1.5706478   2.1433437   0.1165772  )
        88           AU  tau(  88) = (   1.5706478   1.8962938   0.1165772  )
        89           AU  tau(  89) = (   1.7134072   2.1433437   0.1165772  )
        90           AU  tau(  90) = (   1.7134072   1.8962938   0.1165772  )
        91           AU  tau(  91) = (   1.8562156   2.1433437   0.1165772  )
        92           AU  tau(  92) = (   1.8562156   1.8962938   0.1165772  )
        93           AU  tau(  93) = (   1.9989753   2.1433437   0.1165772  )
        94           AU  tau(  94) = (   1.9989753   1.8962938   0.1165772  )
        95           AU  tau(  95) = (   2.1417836   2.1433437   0.1165772  )
        96           AU  tau(  96) = (   2.1417836   1.8962938   0.1165772  )
        97           AU  tau(  97) = (   2.2845431   2.1433437   0.1165772  )
        98           AU  tau(  98) = (   2.2845431   1.8962938   0.1165772  )
        99           AU  tau(  99) = (   1.4992193   2.1021445   0.0000000  )
       100           AU  tau( 100) = (   1.4992193   1.8550456   0.0000000  )
       101           AU  tau( 101) = (   1.6420276   2.1021445   0.0000000  )
       102           AU  tau( 102) = (   1.6420276   1.8550456   0.0000000  )
       103           AU  tau( 103) = (   1.7847871   2.1021445   0.0000000  )
       104           AU  tau( 104) = (   1.7847871   1.8550456   0.0000000  )
       105           AU  tau( 105) = (   1.9275954   2.1021445   0.0000000  )
       106           AU  tau( 106) = (   1.9275954   1.8550456   0.0000000  )
       107           AU  tau( 107) = (   2.0704038   2.1021445   0.0000000  )
       108           AU  tau( 108) = (   2.0704038   1.8550456   0.0000000  )
       109           AU  tau( 109) = (   2.2131632   2.1021445   0.0000000  )
       110           AU  tau( 110) = (   2.2131632   1.8550456   0.0000000  )
       111           AU  tau( 111) = (   2.3559716   2.1021445   0.0000000  )
       112           AU  tau( 112) = (   2.3559716   1.8550456   0.0000000  )

     number of k points=     2  Marzari-Vanderbilt smearing, width (Ry)=  0.0500
                       cart. coord. in units 2pi/alat
        k(    1) = (   0.2500000   0.5056706   0.0000000), wk =   1.0000000
        k(    2) = (  -0.2500000   0.5056706   0.0000000), wk =   1.0000000

     Dense  grid:  2158381 G-vectors     FFT dimensions: ( 180,  90, 288)

     Smooth grid:   763307 G-vectors     FFT dimensions: ( 125,  64, 200)

     Estimated max dynamical RAM per process >      66.42 MB

     Estimated total dynamical RAM >      37.36 GB

     Initial potential from superposition of free atoms

     starting charge 1230.69946, renormalised to 1232.00000

     negative rho (up, down):  3.043E+00 0.000E+00
     Starting wfcs are 1008 randomized atomic wfcs

     total cpu time spent up to now is        8.9 secs

     Self-consistent Calculation

     iteration #  1     ecut=    25.00 Ry     beta= 0.70
     RMM-DIIS diagonalization
     ethr =  1.00E-02,  avg # of iterations =  1.9

     Threshold (ethr) on eigenvalues was too large:
     Diagonalizing with lowered threshold

     RMM-DIIS diagonalization
     ethr =  3.12E-04,  avg # of iterations =  2.8

     negative rho (up, down):  2.995E+00 0.000E+00

     total cpu time spent up to now is       31.8 secs

     total energy              =  -11423.76464807 Ry
     Harris-Foulkes estimate   =  -11428.38206834 Ry
     estimated scf accuracy    <       5.88228303 Ry

     iteration #  2     ecut=    25.00 Ry     beta= 0.70
     RMM-DIIS diagonalization
     ethr =  4.77E-04,  avg # of iterations =  4.0

     negative rho (up, down):  3.010E+00 0.000E+00

     total cpu time spent up to now is       47.2 secs

     total energy              =  -11411.91295295 Ry
     Harris-Foulkes estimate   =  -11438.89389959 Ry
     estimated scf accuracy    <     153.80655867 Ry

     iteration #  3     ecut=    25.00 Ry     beta= 0.70
     RMM-DIIS diagonalization
     ethr =  4.77E-04,  avg # of iterations =  3.6

     negative rho (up, down):  3.050E+00 0.000E+00

     total cpu time spent up to now is       61.5 secs

     total energy              =  -11426.41991409 Ry
     Harris-Foulkes estimate   =  -11427.76759096 Ry
     estimated scf accuracy    <       3.64450641 Ry

     iteration #  4     ecut=    25.00 Ry     beta= 0.70
     RMM-DIIS diagonalization
     ethr =  2.96E-04,  avg # of iterations =  2.7

     negative rho (up, down):  3.057E+00 0.000E+00

     total cpu time spent up to now is       72.9 secs

     total energy              =  -11426.58965287 Ry
     Harris-Foulkes estimate   =  -11427.24430241 Ry
     estimated scf accuracy    <       3.76068361 Ry

     iteration #  5     ecut=    25.00 Ry     beta= 0.70
     RMM-DIIS diagonalization
     ethr =  2.96E-04,  avg # of iterations =  2.6

     negative rho (up, down):  3.074E+00 0.000E+00

     total cpu time spent up to now is       84.1 secs

     total energy              =  -11426.87793861 Ry
     Harris-Foulkes estimate   =  -11427.30389171 Ry
     estimated scf accuracy    <       4.19227457 Ry

     iteration #  6     ecut=    25.00 Ry     beta= 0.70
     RMM-DIIS diagonalization
     ethr =  2.96E-04,  avg # of iterations =  2.5

     negative rho (up, down):  3.079E+00 0.000E+00

     total cpu time spent up to now is       95.0 secs

     total energy              =  -11427.07235664 Ry
     Harris-Foulkes estimate   =  -11427.09087330 Ry
     estimated scf accuracy    <       0.07641742 Ry

     iteration #  7     ecut=    25.00 Ry     beta= 0.70
     RMM-DIIS diagonalization
     ethr =  6.20E-06,  avg # of iterations =  3.6

     negative rho (up, down):  3.083E+00 0.000E+00

     total cpu time spent up to now is      108.8 secs

     total energy              =  -11427.07468801 Ry
     Harris-Foulkes estimate   =  -11427.11263867 Ry
     estimated scf accuracy    <       0.18160420 Ry

     iteration #  8     ecut=    25.00 Ry     beta= 0.70
     RMM-DIIS diagonalization
     ethr =  6.20E-06,  avg # of iterations =  2.8

     negative rho (up, down):  3.084E+00 0.000E+00

     total cpu time spent up to now is      126.4 secs

     total energy              =  -11427.08958416 Ry
     Harris-Foulkes estimate   =  -11427.09594393 Ry
     estimated scf accuracy    <       0.05666514 Ry

     iteration #  9     ecut=    25.00 Ry     beta= 0.70
     RMM-DIIS diagonalization
     ethr =  4.60E-06,  avg # of iterations =  2.7

     negative rho (up, down):  3.084E+00 0.000E+00

     total cpu time spent up to now is      138.3 secs

     total energy              =  -11427.09252225 Ry
     Harris-Foulkes estimate   =  -11427.09449291 Ry
     estimated scf accuracy    <       0.01500465 Ry

     iteration # 10     ecut=    25.00 Ry     beta= 0.70
     RMM-DIIS diagonalization
     ethr =  1.22E-06,  avg # of iterations =  2.7

     negative rho (up, down):  3.083E+00 0.000E+00

     total cpu time spent up to now is      150.1 secs

     total energy              =  -11427.09310836 Ry
     Harris-Foulkes estimate   =  -11427.09441331 Ry
     estimated scf accuracy    <       0.00655072 Ry

     iteration # 11     ecut=    25.00 Ry     beta= 0.70
     RMM-DIIS diagonalization
     ethr =  5.32E-07,  avg # of iterations =  2.8

     negative rho (up, down):  3.084E+00 0.000E+00

     total cpu time spent up to now is      161.6 secs

     total energy              =  -11427.09346051 Ry
     Harris-Foulkes estimate   =  -11427.09430425 Ry
     estimated scf accuracy    <       0.00355890 Ry

     iteration # 12     ecut=    25.00 Ry     beta= 0.70
     RMM-DIIS diagonalization
     ethr =  2.89E-07,  avg # of iterations =  2.7

     negative rho (up, down):  3.084E+00 0.000E+00

     total cpu time spent up to now is      172.9 secs

     total energy              =  -11427.09362823 Ry
     Harris-Foulkes estimate   =  -11427.09409806 Ry
     estimated scf accuracy    <       0.00225403 Ry

     iteration # 13     ecut=    25.00 Ry     beta= 0.70
     RMM-DIIS diagonalization
     ethr =  1.83E-07,  avg # of iterations =  2.7

     negative rho (up, down):  3.084E+00 0.000E+00

     total cpu time spent up to now is      183.9 secs

     total energy              =  -11427.09370492 Ry
     Harris-Foulkes estimate   =  -11427.09424458 Ry
     estimated scf accuracy    <       0.00497186 Ry

     iteration # 14     ecut=    25.00 Ry     beta= 0.70
     RMM-DIIS diagonalization
     ethr =  1.83E-07,  avg # of iterations =  2.7

     negative rho (up, down):  3.085E+00 0.000E+00

     total cpu time spent up to now is      194.9 secs

     total energy              =  -11427.09398153 Ry
     Harris-Foulkes estimate   =  -11427.09401380 Ry
     estimated scf accuracy    <       0.00010777 Ry

     iteration # 15     ecut=    25.00 Ry     beta= 0.70
     RMM-DIIS diagonalization
     ethr =  8.75E-09,  avg # of iterations =  3.4

     negative rho (up, down):  3.085E+00 0.000E+00

     total cpu time spent up to now is      208.4 secs

     total energy              =  -11427.09398573 Ry
     Harris-Foulkes estimate   =  -11427.09404273 Ry
     estimated scf accuracy    <       0.00049174 Ry

     iteration # 16     ecut=    25.00 Ry     beta= 0.70
     RMM-DIIS diagonalization
     ethr =  8.75E-09,  avg # of iterations =  2.7

     negative rho (up, down):  3.085E+00 0.000E+00

     total cpu time spent up to now is      219.4 secs

     total energy              =  -11427.09399590 Ry
     Harris-Foulkes estimate   =  -11427.09403935 Ry
     estimated scf accuracy    <       0.00023990 Ry

     iteration # 17     ecut=    25.00 Ry     beta= 0.70
     RMM-DIIS diagonalization
     ethr =  8.75E-09,  avg # of iterations =  2.7

     negative rho (up, down):  3.085E+00 0.000E+00

     total cpu time spent up to now is      230.3 secs

     total energy              =  -11427.09400048 Ry
     Harris-Foulkes estimate   =  -11427.09403741 Ry
     estimated scf accuracy    <       0.00016006 Ry

     iteration # 18     ecut=    25.00 Ry     beta= 0.70
     RMM-DIIS diagonalization
     ethr =  8.75E-09,  avg # of iterations =  2.7

     negative rho (up, down):  3.085E+00 0.000E+00

     total cpu time spent up to now is      241.5 secs

     total energy              =  -11427.09400012 Ry
     Harris-Foulkes estimate   =  -11427.09403864 Ry
     estimated scf accuracy    <       0.00033161 Ry

     iteration # 19     ecut=    25.00 Ry     beta= 0.70
     RMM-DIIS diagonalization
     ethr =  8.75E-09,  avg # of iterations =  2.7

     negative rho (up, down):  3.085E+00 0.000E+00

     total cpu time spent up to now is      252.2 secs

     total energy              =  -11427.09401465 Ry
     Harris-Foulkes estimate   =  -11427.09402673 Ry
     estimated scf accuracy    <       0.00010397 Ry

     iteration # 20     ecut=    25.00 Ry     beta= 0.70
     RMM-DIIS diagonalization
     ethr =  8.44E-09,  avg # of iterations =  2.7

     negative rho (up, down):  3.085E+00 0.000E+00

     total cpu time spent up to now is      263.2 secs

     total energy              =  -11427.09401915 Ry
     Harris-Foulkes estimate   =  -11427.09402371 Ry
     estimated scf accuracy    <       0.00002637 Ry

     iteration # 21     ecut=    25.00 Ry     beta= 0.70
     RMM-DIIS diagonalization
     ethr =  2.14E-09,  avg # of iterations =  2.7

     negative rho (up, down):  3.085E+00 0.000E+00

     total cpu time spent up to now is      274.4 secs

     total energy              =  -11427.09402097 Ry
     Harris-Foulkes estimate   =  -11427.09402206 Ry
     estimated scf accuracy    <       0.00000449 Ry

     iteration # 22     ecut=    25.00 Ry     beta= 0.70
     RMM-DIIS diagonalization
     ethr =  3.65E-10,  avg # of iterations =  2.7

     negative rho (up, down):  3.085E+00 0.000E+00

     total cpu time spent up to now is      285.3 secs

     total energy              =  -11427.09402148 Ry
     Harris-Foulkes estimate   =  -11427.09402171 Ry
     estimated scf accuracy    <       0.00000103 Ry

     iteration # 23     ecut=    25.00 Ry     beta= 0.70
     RMM-DIIS diagonalization
     ethr =  8.38E-11,  avg # of iterations =  2.8

     negative rho (up, down):  3.085E+00 0.000E+00

     total cpu time spent up to now is      296.6 secs

     total energy              =  -11427.09402154 Ry
     Harris-Foulkes estimate   =  -11427.09402176 Ry
     estimated scf accuracy    <       0.00000202 Ry

     iteration # 24     ecut=    25.00 Ry     beta= 0.70
     RMM-DIIS diagonalization
     ethr =  8.38E-11,  avg # of iterations =  2.7

     negative rho (up, down):  3.085E+00 0.000E+00

     total cpu time spent up to now is      307.4 secs

     End of self-consistent calculation

          k = 0.2500 0.5057 0.0000 ( 95386 PWs)   bands (ev):

    -8.0048  -7.7854  -7.3694  -7.1564  -6.9588  -6.8864  -6.8074  -6.6746
    -6.6108  -6.2899  -6.2193  -6.1890  -6.1050  -6.0373  -5.9302  -5.9278
    -5.8887  -5.8390  -5.8309  -5.8249  -5.7939  -5.7360  -5.7239  -5.6814
    -5.6674  -5.6495  -5.6453  -5.6401  -5.5498  -5.5384  -5.5309  -5.5226
    -5.5164  -5.5072  -5.4891  -5.4812  -5.4629  -5.4594  -5.4282  -5.3751
    -5.3690  -5.3537  -5.3515  -5.3170  -5.3099  -5.2938  -5.2912  -5.2336
    -5.2326  -5.2326  -5.2282  -5.2183  -5.1997  -5.1786  -5.1554  -5.1446
    -5.1298  -5.1244  -5.1156  -5.1141  -5.1105  -5.1092  -5.0880  -5.0674
    -5.0647  -5.0570  -5.0559  -5.0488  -5.0407  -5.0376  -5.0304  -4.9877
    -4.9820  -4.9668  -4.9637  -4.9480  -4.9342  -4.9323  -4.9288  -4.9268
    -4.9176  -4.9159  -4.9068  -4.9038  -4.8857  -4.8853  -4.8817  -4.8718
    -4.8718  -4.8620  -4.8595  -4.8487  -4.8279  -4.8269  -4.8247  -4.8220
    -4.7418  -4.7392  -4.7376  -4.7367  -4.7328  -4.7254  -4.7210  -4.7208
    -4.7201  -4.7119  -4.6994  -4.6847  -4.6741  -4.6165  -4.6000  -4.5970
    -4.5933  -4.5849  -4.5624  -4.5609  -4.5573  -4.5267  -4.4705  -4.4694
    -4.4508  -4.4137  -4.3978  -4.3951  -4.3934  -4.3931  -4.3916  -4.3853
    -4.3552  -4.3455  -4.3450  -4.3370  -4.3255  -4.3228  -4.3201  -4.3035
    -4.3020  -4.2738  -4.2644  -4.2573  -4.2476  -4.2451  -4.2293  -4.2104
    -4.1937  -4.1678  -4.1560  -4.1549  -4.1545  -4.1529  -4.1481  -4.1394
    -4.1372  -4.1044  -4.0971  -4.0833  -4.0773  -4.0761  -4.0698  -4.0543
    -4.0505  -4.0352  -4.0305  -4.0239  -4.0212  -4.0171  -4.0083  -3.9938
    -3.9867  -3.9706  -3.9585  -3.9274  -3.9139  -3.8985  -3.8930  -3.8895
    -3.8709  -3.8706  -3.8610  -3.8373  -3.8365  -3.8328  -3.8164  -3.8083
    -3.7858  -3.7800  -3.7391  -3.7357  -3.7264  -3.7240  -3.7148  -3.7101
    -3.7008  -3.6851  -3.6806  -3.6711  -3.6588  -3.6404  -3.6191  -3.6191
    -3.6171  -3.6161  -3.6054  -3.6017  -3.5989  -3.5951  -3.5916  -3.5796
    -3.5697  -3.5669  -3.5644  -3.5594  -3.5574  -3.5508  -3.5457  -3.5447
    -3.5434  -3.5341  -3.5235  -3.4922  -3.4821  -3.4562  -3.4539  -3.4428
    -3.4424  -3.4404  -3.4391  -3.4259  -3.4212  -3.4126  -3.4050  -3.3968
    -3.3877  -3.3796  -3.3739  -3.3719  -3.3702  -3.3694  -3.3642  -3.3562
    -3.3524  -3.3373  -3.3355  -3.3268  -3.3260  -3.3243  -3.3198  -3.3170
    -3.3133  -3.3129  -3.3090  -3.3085  -3.2996  -3.2968  -3.2918  -3.2859
    -3.2813  -3.2793  -3.2589  -3.2496  -3.2467  -3.2437  -3.2380  -3.2287
    -3.2195  -3.2188  -3.2140  -3.2101  -3.2021  -3.1996  -3.1888  -3.1804
    -3.1789  -3.1731  -3.1720  -3.1683  -3.1667  -3.1591  -3.1580  -3.1457
    -3.1455  -3.1215  -3.1211  -3.1105  -3.0981  -3.0905  -3.0842  -3.0578
    -3.0412  -3.0399  -3.0344  -3.0331  -3.0261  -3.0238  -3.0230  -3.0180
    -3.0171  -3.0162  -3.0154  -3.0090  -3.0023  -3.0014  -2.9892  -2.9847
    -2.9817  -2.9806  -2.9799  -2.9749  -2.9748  -2.9709  -2.9685  -2.9507
    -2.9150  -2.9129  -2.8899  -2.8757  -2.8741  -2.8622  -2.8596  -2.8492
    -2.8474  -2.8279  -2.8219  -2.8203  -2.7996  -2.7961  -2.7954  -2.7829
    -2.7796  -2.7752  -2.7672  -2.7640  -2.7501  -2.7490  -2.7467  -2.7420
    -2.7231  -2.7223  -2.7205  -2.7179  -2.6627  -2.6542  -2.6460  -2.6365
    -2.6294  -2.6260  -2.6214  -2.5954  -2.5800  -2.5697  -2.5673  -2.5668
    -2.5634  -2.5589  -2.5530  -2.5407  -2.5280  -2.5251  -2.5193  -2.5160
    -2.5089  -2.5071  -2.5010  -2.4928  -2.4898  -2.4862  -2.4803  -2.4791
    -2.4731  -2.4722  -2.4664  -2.4656  -2.4597  -2.4490  -2.4352  -2.4346
    -2.4063  -2.4000  -2.3981  -2.3741  -2.3702  -2.3631  -2.3557  -2.3557
    -2.3486  -2.3451  -2.3355  -2.3323  -2.3152  -2.3002  -2.2927  -2.2718
    -2.2684  -2.2666  -2.2636  -2.2487  -2.2432  -2.2334  -2.2315  -2.2149
    -2.2125  -2.2054  -2.2051  -2.1977  -2.1969  -2.1781  -2.1448  -2.1360
    -2.1303  -2.1057  -2.1022  -2.0847  -2.0674  -2.0483  -2.0474  -2.0440
    -2.0372  -2.0318  -2.0022  -1.9982  -1.9947  -1.9639  -1.9605  -1.9572
    -1.9559  -1.9518  -1.9479  -1.9452  -1.9392  -1.9387  -1.9368  -1.9307
    -1.9298  -1.9274  -1.9170  -1.9121  -1.9077  -1.9019  -1.8646  -1.8556
    -1.8549  -1.8385  -1.8309  -1.8272  -1.8231  -1.8169  -1.8160  -1.8135
    -1.8114  -1.8013  -1.8000  -1.7989  -1.7933  -1.7664  -1.7595  -1.7584
    -1.7574  -1.7482  -1.7431  -1.7424  -1.7364  -1.7364  -1.7265  -1.7237
    -1.7061  -1.7046  -1.6988  -1.6978  -1.6880  -1.6743  -1.6701  -1.6657
    -1.6634  -1.6586  -1.6507  -1.6287  -1.6129  -1.6036  -1.5993  -1.5974
    -1.5790  -1.5759  -1.5754  -1.5739  -1.5600  -1.5446  -1.5042  -1.4991
    -1.4925  -1.4879  -1.4799  -1.4790  -1.4705  -1.4672  -1.4597  -1.4580
    -1.4510  -1.4442  -1.4335  -1.4323  -1.4260  -1.4131  -1.4125  -1.4073
    -1.3996  -1.3816  -1.3716  -1.3684  -1.3628  -1.3579  -1.3453  -1.3395
    -1.3276  -1.3255  -1.3218  -1.3073  -1.3025  -1.2976  -1.2932  -1.2872
    -1.2871  -1.2777  -1.2764  -1.2670  -1.2645  -1.2553  -1.2535  -1.2496
    -1.2416  -1.2396  -1.2279  -1.2275  -1.2199  -1.2192  -1.2191  -1.2188
    -1.2152  -1.2087  -1.2058  -1.1779  -1.1766  -1.1706  -1.1565  -1.1553
    -1.1449  -1.1401  -1.1378  -1.1334  -1.1299  -1.1249  -1.1244  -1.1216
    -1.1188  -1.1075  -1.1058  -1.0984  -1.0873  -1.0828  -1.0799  -1.0779
    -1.0771  -1.0756  -1.0724  -1.0628  -1.0578  -1.0549  -1.0536  -1.0508
    -1.0501  -1.0441  -1.0043  -0.9810  -0.9697  -0.9648  -0.9521  -0.9371
    -0.9358  -0.9292  -0.9245  -0.9207  -0.9160  -0.9077  -0.9002  -0.8819
    -0.8780  -0.8613  -0.8299  -0.8280  -0.8259  -0.7658  -0.6680  -0.6316
    -0.6015  -0.5944  -0.5466  -0.4527  -0.3796  -0.1935  -0.1601  -0.1188
    -0.0034   0.0222   0.0573   0.1553   0.1621   0.1920   0.2707   0.2883
     0.3156   0.3347   0.5888   0.5922   0.6431   0.6719   0.7320   0.7784
     0.8028   0.8036   0.9241   0.9707   0.9832   1.1554   1.1640   1.1985
     1.3019   1.3263   1.3633   1.3876   1.4797   1.5214   1.5258   1.7955
     1.8683   1.8792   1.8973   1.9000   1.9101   1.9753   1.9822   2.0316
     2.0617   2.0734   2.1944   2.4011   2.4064   2.4084   2.4469   2.4515
     2.6433   2.6541   2.6776   2.7099   2.7217   2.7963   2.8417   3.1811
     3.2036   3.2180   3.2818   3.3296   3.3642   3.3779   3.5444   3.5476
     3.5700   3.6170   3.6260   3.7993   3.8065   3.8939   3.9031   4.0005
     4.0227   4.1244   4.1804   4.2440   4.2475   4.2705   4.3019   4.3974
     4.4722   4.4975   4.5211   4.5650   4.6632   4.8053   4.8116   4.8411
     4.8499   4.8525   4.8940   4.9671   4.9891   5.0742   5.0908   5.1946
     5.2016   5.2120   5.2381   5.2620   5.3016   5.4406   5.5256   5.5328
     5.5332   5.5445   5.6500   5.7197   5.7319   5.8368   5.8524   5.8740
     5.8959   5.9065   5.9913   6.0158   6.0168   6.0263   6.0422   6.1381
     6.1473   6.1654   6.2222   6.3060   6.4008   6.4472   6.5133   6.5227
     6.5873   6.6310   6.6529   6.6894   6.7324   6.7461   6.9667   7.0242
     7.0602   7.1208   7.1874   7.1882   7.1950   7.2773   7.3484   7.3541
     7.3954   7.4066   7.5124   7.5551   7.5588   7.5979   7.6652   7.6861
     7.7122   7.7351   7.8535   7.8637   7.9865   8.0100   8.0871   8.1058
     8.1607   8.1907   8.2180   8.2506   8.3056   8.3469   8.3807   8.4523
     8.5075   8.5486   8.5618   8.5877   8.6004   8.6056   8.6590   8.6712
     8.6787   8.6811   8.6905   8.7546   9.2132   9.2252   9.2425   9.2619
     9.2828   9.3776   9.4181   9.4319   9.4407   9.4455   9.5336   9.5628
     9.6035   9.6287   9.7068   9.8646   9.9082  10.3775  10.4544  10.7131

          k =-0.2500 0.5057 0.0000 ( 95386 PWs)   bands (ev):

    -8.0048  -7.7854  -7.3694  -7.1564  -6.9588  -6.8864  -6.8074  -6.6746
    -6.6108  -6.2899  -6.2193  -6.1890  -6.1050  -6.0373  -5.9302  -5.9278
    -5.8887  -5.8390  -5.8309  -5.8249  -5.7939  -5.7360  -5.7239  -5.6814
    -5.6674  -5.6495  -5.6453  -5.6401  -5.5498  -5.5384  -5.5309  -5.5226
    -5.5164  -5.5072  -5.4891  -5.4812  -5.4629  -5.4594  -5.4282  -5.3751
    -5.3690  -5.3537  -5.3515  -5.3170  -5.3099  -5.2938  -5.2912  -5.2336
    -5.2326  -5.2326  -5.2282  -5.2183  -5.1996  -5.1786  -5.1554  -5.1446
    -5.1298  -5.1244  -5.1156  -5.1141  -5.1105  -5.1091  -5.0880  -5.0674
    -5.0647  -5.0570  -5.0559  -5.0488  -5.0407  -5.0376  -5.0304  -4.9877
    -4.9820  -4.9668  -4.9637  -4.9480  -4.9342  -4.9323  -4.9288  -4.9268
    -4.9176  -4.9159  -4.9068  -4.9038  -4.8857  -4.8853  -4.8817  -4.8718
    -4.8718  -4.8620  -4.8595  -4.8487  -4.8279  -4.8269  -4.8247  -4.8220
    -4.7418  -4.7392  -4.7376  -4.7367  -4.7328  -4.7254  -4.7211  -4.7207
    -4.7201  -4.7119  -4.6994  -4.6847  -4.6741  -4.6165  -4.6000  -4.5970
    -4.5933  -4.5849  -4.5624  -4.5609  -4.5573  -4.5267  -4.4705  -4.4694
    -4.4508  -4.4137  -4.3978  -4.3951  -4.3934  -4.3931  -4.3916  -4.3853
    -4.3552  -4.3455  -4.3450  -4.3370  -4.3255  -4.3228  -4.3201  -4.3035
    -4.3020  -4.2738  -4.2644  -4.2573  -4.2476  -4.2451  -4.2293  -4.2104
    -4.1937  -4.1678  -4.1561  -4.1549  -4.1545  -4.1529  -4.1482  -4.1394
    -4.1372  -4.1044  -4.0971  -4.0833  -4.0773  -4.0761  -4.0698  -4.0543
    -4.0505  -4.0352  -4.0305  -4.0239  -4.0212  -4.0171  -4.0083  -3.9938
    -3.9867  -3.9706  -3.9585  -3.9274  -3.9139  -3.8984  -3.8930  -3.8895
    -3.8709  -3.8706  -3.8610  -3.8373  -3.8365  -3.8328  -3.8164  -3.8083
    -3.7858  -3.7800  -3.7391  -3.7357  -3.7264  -3.7240  -3.7148  -3.7101
    -3.7008  -3.6851  -3.6806  -3.6711  -3.6588  -3.6404  -3.6191  -3.6191
    -3.6172  -3.6161  -3.6054  -3.6017  -3.5989  -3.5951  -3.5916  -3.5796
    -3.5697  -3.5669  -3.5644  -3.5594  -3.5574  -3.5508  -3.5457  -3.5447
    -3.5434  -3.5341  -3.5235  -3.4922  -3.4821  -3.4562  -3.4539  -3.4428
    -3.4424  -3.4404  -3.4391  -3.4259  -3.4212  -3.4126  -3.4050  -3.3968
    -3.3877  -3.3796  -3.3739  -3.3719  -3.3702  -3.3694  -3.3642  -3.3562
    -3.3524  -3.3373  -3.3355  -3.3268  -3.3260  -3.3243  -3.3198  -3.3170
    -3.3133  -3.3129  -3.3090  -3.3085  -3.2996  -3.2968  -3.2918  -3.2859
    -3.2813  -3.2793  -3.2589  -3.2496  -3.2466  -3.2437  -3.2380  -3.2287
    -3.2195  -3.2188  -3.2141  -3.2101  -3.2021  -3.1996  -3.1888  -3.1804
    -3.1789  -3.1731  -3.1720  -3.1683  -3.1668  -3.1591  -3.1580  -3.1457
    -3.1455  -3.1215  -3.1210  -3.1105  -3.0981  -3.0905  -3.0842  -3.0578
    -3.0412  -3.0398  -3.0344  -3.0332  -3.0261  -3.0238  -3.0230  -3.0180
    -3.0172  -3.0162  -3.0154  -3.0090  -3.0023  -3.0014  -2.9892  -2.9847
    -2.9817  -2.9805  -2.9799  -2.9749  -2.9748  -2.9709  -2.9685  -2.9507
    -2.9150  -2.9129  -2.8899  -2.8757  -2.8741  -2.8622  -2.8596  -2.8492
    -2.8474  -2.8279  -2.8219  -2.8203  -2.7996  -2.7961  -2.7954  -2.7829
    -2.7796  -2.7752  -2.7672  -2.7640  -2.7501  -2.7490  -2.7467  -2.7420
    -2.7231  -2.7223  -2.7205  -2.7179  -2.6627  -2.6542  -2.6460  -2.6365
    -2.6294  -2.6260  -2.6214  -2.5954  -2.5800  -2.5696  -2.5673  -2.5668
    -2.5634  -2.5589  -2.5530  -2.5407  -2.5280  -2.5251  -2.5193  -2.5160
    -2.5088  -2.5071  -2.5010  -2.4928  -2.4898  -2.4862  -2.4803  -2.4791
    -2.4731  -2.4722  -2.4664  -2.4655  -2.4597  -2.4490  -2.4352  -2.4346
    -2.4063  -2.4000  -2.3981  -2.3742  -2.3702  -2.3631  -2.3557  -2.3557
    -2.3486  -2.3451  -2.3355  -2.3323  -2.3152  -2.3002  -2.2927  -2.2718
    -2.2684  -2.2666  -2.2636  -2.2487  -2.2432  -2.2335  -2.2315  -2.2149
    -2.2125  -2.2054  -2.2051  -2.1977  -2.1969  -2.1781  -2.1448  -2.1360
    -2.1303  -2.1057  -2.1022  -2.0846  -2.0674  -2.0483  -2.0474  -2.0440
    -2.0372  -2.0318  -2.0022  -1.9982  -1.9947  -1.9639  -1.9605  -1.9572
    -1.9559  -1.9518  -1.9479  -1.9452  -1.9392  -1.9387  -1.9368  -1.9308
    -1.9298  -1.9274  -1.9170  -1.9121  -1.9077  -1.9019  -1.8646  -1.8556
    -1.8549  -1.8385  -1.8309  -1.8272  -1.8231  -1.8169  -1.8160  -1.8135
    -1.8114  -1.8013  -1.8000  -1.7989  -1.7933  -1.7664  -1.7595  -1.7584
    -1.7574  -1.7482  -1.7431  -1.7424  -1.7365  -1.7364  -1.7265  -1.7237
    -1.7061  -1.7046  -1.6988  -1.6978  -1.6880  -1.6743  -1.6701  -1.6657
    -1.6634  -1.6586  -1.6507  -1.6287  -1.6129  -1.6036  -1.5992  -1.5974
    -1.5790  -1.5759  -1.5754  -1.5739  -1.5600  -1.5446  -1.5042  -1.4991
    -1.4925  -1.4879  -1.4799  -1.4790  -1.4705  -1.4672  -1.4597  -1.4580
    -1.4510  -1.4442  -1.4335  -1.4323  -1.4260  -1.4131  -1.4125  -1.4073
    -1.3996  -1.3816  -1.3716  -1.3684  -1.3628  -1.3579  -1.3453  -1.3395
    -1.3276  -1.3255  -1.3218  -1.3073  -1.3025  -1.2976  -1.2932  -1.2872
    -1.2871  -1.2777  -1.2764  -1.2669  -1.2645  -1.2553  -1.2535  -1.2496
    -1.2416  -1.2396  -1.2279  -1.2275  -1.2199  -1.2192  -1.2191  -1.2188
    -1.2152  -1.2087  -1.2058  -1.1779  -1.1766  -1.1706  -1.1565  -1.1553
    -1.1449  -1.1401  -1.1378  -1.1334  -1.1299  -1.1249  -1.1244  -1.1216
    -1.1188  -1.1075  -1.1058  -1.0984  -1.0873  -1.0828  -1.0799  -1.0779
    -1.0771  -1.0756  -1.0724  -1.0628  -1.0578  -1.0549  -1.0536  -1.0508
    -1.0501  -1.0441  -1.0043  -0.9810  -0.9697  -0.9648  -0.9521  -0.9373
    -0.9356  -0.9292  -0.9245  -0.9207  -0.9160  -0.9077  -0.9002  -0.8819
    -0.8780  -0.8613  -0.8299  -0.8280  -0.8259  -0.7658  -0.6680  -0.6316
    -0.6015  -0.5944  -0.5466  -0.4527  -0.3796  -0.1935  -0.1601  -0.1188
    -0.0034   0.0222   0.0573   0.1553   0.1621   0.1920   0.2707   0.2883
     0.3156   0.3347   0.5888   0.5922   0.6431   0.6719   0.7320   0.7784
     0.8028   0.8036   0.9241   0.9707   0.9832   1.1554   1.1640   1.1985
     1.3019   1.3263   1.3633   1.3876   1.4797   1.5214   1.5258   1.7955
     1.8683   1.8792   1.8973   1.9000   1.9101   1.9753   1.9822   2.0316
     2.0617   2.0734   2.1944   2.4011   2.4064   2.4084   2.4469   2.4515
     2.6433   2.6541   2.6776   2.7099   2.7217   2.7963   2.8417   3.1811
     3.2036   3.2180   3.2818   3.3296   3.3642   3.3779   3.5444   3.5476
     3.5700   3.6170   3.6260   3.7993   3.8065   3.8939   3.9031   4.0005
     4.0227   4.1244   4.1804   4.2440   4.2475   4.2705   4.3019   4.3974
     4.4721   4.4975   4.5211   4.5650   4.6632   4.8053   4.8116   4.8411
     4.8500   4.8525   4.8940   4.9671   4.9891   5.0742   5.0908   5.1946
     5.2016   5.2120   5.2381   5.2620   5.3016   5.4405   5.5256   5.5327
     5.5332   5.5445   5.6500   5.7198   5.7319   5.8369   5.8523   5.8738
     5.8958   5.9064   5.9913   6.0156   6.0170   6.0265   6.0424   6.1380
     6.1470   6.1656   6.2220   6.3063   6.4007   6.4460   6.5135   6.5226
     6.5875   6.6307   6.6521   6.6900   6.7338   6.7458   6.9680   7.0253
     7.0589   7.1185   7.1820   7.1924   7.1955   7.2765   7.3444   7.3547
     7.3943   7.4067   7.5051   7.5550   7.5578   7.5971   7.6634   7.6871
     7.7111   7.7357   7.8555   7.8605   7.9880   8.0123   8.0850   8.1077
     8.1489   8.1964   8.2044   8.2673   8.3046   8.3470   8.4212   8.4488
     8.5078   8.5449   8.5529   8.5660   8.5724   8.6118   8.6145   8.6651
     8.6738   8.6869   8.6959   8.7356   9.1935   9.2324   9.2369   9.2401
     9.2699   9.3640   9.4190   9.4338   9.4338   9.4457   9.5127   9.5429
     9.5751   9.6118   9.7356   9.8717   9.8782  10.3728  10.3906  10.7291

     the Fermi energy is     0.7845 ev

!    total energy              =  -11427.09402151 Ry
     Harris-Foulkes estimate   =  -11427.09402170 Ry
     estimated scf accuracy    <       0.00000019 Ry

     The total energy is the sum of the following terms:

     one-electron contribution = -129707.73861782 Ry
     hartree contribution      =   65677.92438192 Ry
     xc contribution           =   -5523.82518058 Ry
     ewald contribution        =   58126.48229572 Ry
     smearing contrib. (-TS)   =       0.06309925 Ry

     convergence has been achieved in  24 iterations

     negative rho (up, down):  3.085E+00 0.000E+00

     Forces acting on atoms (cartesian axes, Ry/au):

     atom    1 type  1   force =    -0.00104411    0.00016031    0.00837201
     atom    2 type  1   force =    -0.00105025   -0.00021686    0.00809531
     atom    3 type  1   force =    -0.00016019    0.00022019    0.00899627
     atom    4 type  1   force =    -0.00015834   -0.00015916    0.00871747
     atom    5 type  1   force =     0.00007775    0.00025190    0.00905013
     atom    6 type  1   force =     0.00008790   -0.00013020    0.00876737
     atom    7 type  1   force =    -0.00004999    0.00023459    0.00900340
     atom    8 type  1   force =    -0.00005444   -0.00015059    0.00871934
     atom    9 type  1   force =     0.00014490    0.00023487    0.00896371
     atom   10 type  1   force =     0.00014267   -0.00015199    0.00868178
     atom   11 type  1   force =    -0.00009113    0.00025013    0.00899371
     atom   12 type  1   force =    -0.00008290   -0.00014088    0.00871282
     atom   13 type  1   force =     0.00075173    0.00027094    0.00881410
     atom   14 type  1   force =     0.00074874   -0.00011701    0.00853321
     atom   15 type  1   force =    -0.00135506    0.00041911   -0.00530673
     atom   16 type  1   force =    -0.00135176   -0.00007527   -0.00541267
     atom   17 type  1   force =    -0.00018730    0.00038659   -0.00532799
     atom   18 type  1   force =    -0.00018606   -0.00010668   -0.00543640
     atom   19 type  1   force =     0.00006879    0.00039779   -0.00529589
     atom   20 type  1   force =     0.00006907   -0.00010822   -0.00539890
     atom   21 type  1   force =    -0.00007553    0.00040447   -0.00527396
     atom   22 type  1   force =    -0.00007348   -0.00010685   -0.00537780
     atom   23 type  1   force =     0.00022328    0.00040041   -0.00530057
     atom   24 type  1   force =     0.00022215   -0.00010332   -0.00541153
     atom   25 type  1   force =    -0.00011293    0.00039423   -0.00534818
     atom   26 type  1   force =    -0.00011229   -0.00010955   -0.00545766
     atom   27 type  1   force =     0.00094315    0.00039748   -0.00532049
     atom   28 type  1   force =     0.00093993   -0.00010896   -0.00542516
     atom   29 type  1   force =    -0.00062903   -0.00010295    0.00858488
     atom   30 type  1   force =    -0.00062732   -0.00050308    0.00864082
     atom   31 type  1   force =    -0.00004080   -0.00012213    0.00878636
     atom   32 type  1   force =    -0.00004195   -0.00052515    0.00884258
     atom   33 type  1   force =     0.00013208   -0.00012672    0.00873982
     atom   34 type  1   force =     0.00013107   -0.00054488    0.00879705
     atom   35 type  1   force =     0.00004294   -0.00011736    0.00876034
     atom   36 type  1   force =     0.00004191   -0.00052877    0.00881606
     atom   37 type  1   force =    -0.00007670   -0.00012467    0.00868196
     atom   38 type  1   force =    -0.00007949   -0.00053340    0.00873539
     atom   39 type  1   force =     0.00008656   -0.00012439    0.00873274
     atom   40 type  1   force =     0.00008800   -0.00054619    0.00878708
     atom   41 type  1   force =     0.00085169   -0.00021095    0.00806536
     atom   42 type  1   force =     0.00085794   -0.00062232    0.00812213
     atom   43 type  1   force =    -0.00078924   -0.00011049   -0.00534131
     atom   44 type  1   force =    -0.00078443   -0.00061905   -0.00530815
     atom   45 type  1   force =    -0.00006015   -0.00011173   -0.00535781
     atom   46 type  1   force =    -0.00006792   -0.00062247   -0.00532471
     atom   47 type  1   force =     0.00014457   -0.00010345   -0.00531429
     atom   48 type  1   force =     0.00014199   -0.00061434   -0.00528850
     atom   49 type  1   force =     0.00007682   -0.00010508   -0.00531654
     atom   50 type  1   force =     0.00008185   -0.00061919   -0.00528748
     atom   51 type  1   force =    -0.00006169   -0.00010452   -0.00536366
     atom   52 type  1   force =    -0.00006205   -0.00061667   -0.00533587
     atom   53 type  1   force =     0.00008847   -0.00011585   -0.00538604
     atom   54 type  1   force =     0.00008586   -0.00062945   -0.00536839
     atom   55 type  1   force =     0.00109396   -0.00007528   -0.00535035
     atom   56 type  1   force =     0.00110207   -0.00057777   -0.00532729
     atom   57 type  1   force =    -0.00106419    0.00068242   -0.00841799
     atom   58 type  1   force =    -0.00105154    0.00024235   -0.00809184
     atom   59 type  1   force =    -0.00015973    0.00063402   -0.00904040
     atom   60 type  1   force =    -0.00016297    0.00018756   -0.00871219
     atom   61 type  1   force =     0.00009715    0.00060648   -0.00909118
     atom   62 type  1   force =     0.00009051    0.00015500   -0.00876378
     atom   63 type  1   force =    -0.00003247    0.00062515   -0.00904425
     atom   64 type  1   force =    -0.00002704    0.00017194   -0.00871589
     atom   65 type  1   force =     0.00014518    0.00062416   -0.00900740
     atom   66 type  1   force =     0.00014603    0.00017379   -0.00867762
     atom   67 type  1   force =    -0.00009491    0.00061113   -0.00903764
     atom   68 type  1   force =    -0.00010194    0.00016196   -0.00871184
     atom   69 type  1   force =     0.00073844    0.00058612   -0.00885819
     atom   70 type  1   force =     0.00073982    0.00014131   -0.00853500
     atom   71 type  1   force =    -0.00079069    0.00076215    0.00520079
     atom   72 type  1   force =    -0.00078745    0.00022140    0.00535225
     atom   73 type  1   force =    -0.00006073    0.00076523    0.00521774
     atom   74 type  1   force =    -0.00006503    0.00022350    0.00537263
     atom   75 type  1   force =     0.00015269    0.00075889    0.00516122
     atom   76 type  1   force =     0.00015230    0.00021307    0.00532455
     atom   77 type  1   force =     0.00008285    0.00076246    0.00514174
     atom   78 type  1   force =     0.00008841    0.00021812    0.00530237
     atom   79 type  1   force =    -0.00006519    0.00075702    0.00518993
     atom   80 type  1   force =    -0.00006927    0.00021869    0.00534825
     atom   81 type  1   force =     0.00008463    0.00076617    0.00522726
     atom   82 type  1   force =     0.00008155    0.00023332    0.00538937
     atom   83 type  1   force =     0.00109279    0.00071616    0.00520222
     atom   84 type  1   force =     0.00109135    0.00018705    0.00536043
     atom   85 type  1   force =    -0.00135447    0.00005610    0.00535918
     atom   86 type  1   force =    -0.00136115   -0.00075265    0.00552780
     atom   87 type  1   force =    -0.00018779    0.00009405    0.00538608
     atom   88 type  1   force =    -0.00018781   -0.00072919    0.00555823
     atom   89 type  1   force =     0.00007455    0.00008610    0.00534743
     atom   90 type  1   force =     0.00007178   -0.00073147    0.00551482
     atom   91 type  1   force =    -0.00006462    0.00008105    0.00530827
     atom   92 type  1   force =    -0.00006385   -0.00073597    0.00547415
     atom   93 type  1   force =     0.00022061    0.00008583    0.00532305
     atom   94 type  1   force =     0.00022365   -0.00073937    0.00549328
     atom   95 type  1   force =    -0.00011931    0.00009051    0.00537684
     atom   96 type  1   force =    -0.00011523   -0.00072845    0.00554550
     atom   97 type  1   force =     0.00093834    0.00008494    0.00536210
     atom   98 type  1   force =     0.00093645   -0.00072739    0.00552602
     atom   99 type  1   force =    -0.00063326    0.00012568   -0.00856873
     atom  100 type  1   force =    -0.00063314   -0.00030167   -0.00863465
     atom  101 type  1   force =    -0.00003615    0.00014590   -0.00877116
     atom  102 type  1   force =    -0.00003859   -0.00027629   -0.00883747
     atom  103 type  1   force =     0.00014979    0.00015157   -0.00872233
     atom  104 type  1   force =     0.00014928   -0.00026005   -0.00879092
     atom  105 type  1   force =     0.00005617    0.00013992   -0.00873901
     atom  106 type  1   force =     0.00005757   -0.00027930   -0.00880536
     atom  107 type  1   force =    -0.00008313    0.00014943   -0.00866749
     atom  108 type  1   force =    -0.00008283   -0.00027080   -0.00873086
     atom  109 type  1   force =     0.00007320    0.00015057   -0.00872002
     atom  110 type  1   force =     0.00007561   -0.00025980   -0.00878379
     atom  111 type  1   force =     0.00084040    0.00023596   -0.00805000
     atom  112 type  1   force =     0.00084206   -0.00017099   -0.00811541

     Total force =     0.076774     Total SCF correction =     0.002579

     Writing output data file ./ausurf.save/
 
     init_run     :      7.69s CPU      7.97s WALL (       1 calls)
     electrons    :    290.76s CPU    298.76s WALL (       1 calls)
     forces       :      2.15s CPU      2.22s WALL (       1 calls)

     Called by init_run:
     wfcinit      :      5.99s CPU      6.21s WALL (       1 calls)
     potinit      :      0.11s CPU      0.12s WALL (       1 calls)
     hinit0       :      0.48s CPU      0.49s WALL (       1 calls)

     Called by electrons:
     c_bands      :    246.60s CPU    253.26s WALL (      25 calls)
     sum_band     :     40.78s CPU     41.77s WALL (      25 calls)
     v_of_rho     :      1.70s CPU      1.77s WALL (      25 calls)
     newd         :      0.69s CPU      0.81s WALL (      25 calls)
     mix_rho      :      0.52s CPU      0.53s WALL (      25 calls)

     Called by c_bands:
     init_us_2    :      0.25s CPU      0.27s WALL (     104 calls)
     crmmdiagg    :    115.63s CPU    118.97s WALL (      50 calls)
     wfcrot       :    116.35s CPU    119.30s WALL (      48 calls)
     gsorth       :     19.73s CPU     20.03s WALL (      50 calls)

     Called by sum_band:
     sum_band:bec :      0.67s CPU      0.68s WALL (      50 calls)
     addusdens    :      0.42s CPU      0.57s WALL (      25 calls)

     Called by *rmmdiagg:
     h_psi        :    174.86s CPU    178.95s WALL (     252 calls)
     s_psi        :      8.62s CPU      9.25s WALL (     252 calls)
     cdiaghg      :     18.20s CPU     18.70s WALL (      48 calls)

     Called by h_psi:
     h_psi:calbec :     21.26s CPU     21.82s WALL (     252 calls)
     vloc_psi     :    144.61s CPU    147.32s WALL (     252 calls)
     add_vuspsi   :      8.78s CPU      9.59s WALL (     252 calls)

     General routines
     calbec       :     30.88s CPU     31.68s WALL (     310 calls)
     fft          :      3.00s CPU      3.04s WALL (     335 calls)
     ffts         :      0.57s CPU      0.58s WALL (      50 calls)
     fftw         :    171.79s CPU    175.06s WALL (  235652 calls)
     interpolate  :      0.38s CPU      0.38s WALL (      25 calls)
 
     Parallel routines
     fft_scatt_xy :      3.74s CPU      3.80s WALL (  236037 calls)
     fft_scatt_yz :    157.79s CPU    160.93s WALL (  236037 calls)
 
     PWSCF        :   6m 0.55s CPU   7m 2.88s WALL

 
   This run was terminated on:  14:18:41  16Jul2020            

=------------------------------------------------------------------------------=
   JOB DONE.
=------------------------------------------------------------------------------=
